V -t * -v 1.0a5 -a 0
A -t * -n 1 -p 0 -o 0x7fffffff -c 30 -a 1
A -t * -h 1 -m 1073741823 -s 0
n -t * -a 0 -s 0 -S UP -v circle -c black -i black
n -t * -a 1 -s 1 -S UP -v circle -c black -i black
n -t * -a 2 -s 2 -S UP -v circle -c black -i black
n -t * -a 3 -s 3 -S UP -v circle -c black -i black
l -t * -s 0 -d 2 -S UP -r 2000000 -D 0.01 -c black
l -t * -s 1 -d 2 -S UP -r 2000000 -D 0.01 -c black
l -t * -s 2 -d 3 -S UP -r 2000000 -D 0.01 -c black
+ -t 0.1 -s 1 -d 2 -p cbr -e 210 -c 0 -i 0 -a 0 -x {1.0 3.1 0 ------- null}
- -t 0.1 -s 1 -d 2 -p cbr -e 210 -c 0 -i 0 -a 0 -x {1.0 3.1 0 ------- null}
h -t 0.1 -s 1 -d 2 -p cbr -e 210 -c 0 -i 0 -a 0 -x {1.0 3.1 -1 ------- null}
+ -t 0.10375 -s 1 -d 2 -p cbr -e 210 -c 0 -i 1 -a 0 -x {1.0 3.1 1 ------- null}
- -t 0.10375 -s 1 -d 2 -p cbr -e 210 -c 0 -i 1 -a 0 -x {1.0 3.1 1 ------- null}
h -t 0.10375 -s 1 -d 2 -p cbr -e 210 -c 0 -i 1 -a 0 -x {1.0 3.1 -1 ------- null}
+ -t 0.1075 -s 1 -d 2 -p cbr -e 210 -c 0 -i 2 -a 0 -x {1.0 3.1 2 ------- null}
- -t 0.1075 -s 1 -d 2 -p cbr -e 210 -c 0 -i 2 -a 0 -x {1.0 3.1 2 ------- null}
h -t 0.1075 -s 1 -d 2 -p cbr -e 210 -c 0 -i 2 -a 0 -x {1.0 3.1 -1 ------- null}
r -t 0.11084 -s 1 -d 2 -p cbr -e 210 -c 0 -i 0 -a 0 -x {1.0 3.1 0 ------- null}
+ -t 0.11084 -s 2 -d 3 -p cbr -e 210 -c 0 -i 0 -a 0 -x {1.0 3.1 0 ------- null}
- -t 0.11084 -s 2 -d 3 -p cbr -e 210 -c 0 -i 0 -a 0 -x {1.0 3.1 0 ------- null}
h -t 0.11084 -s 2 -d 3 -p cbr -e 210 -c 0 -i 0 -a 0 -x {1.0 3.1 -1 ------- null}
+ -t 0.11125 -s 1 -d 2 -p cbr -e 210 -c 0 -i 3 -a 0 -x {1.0 3.1 3 ------- null}
- -t 0.11125 -s 1 -d 2 -p cbr -e 210 -c 0 -i 3 -a 0 -x {1.0 3.1 3 ------- null}
h -t 0.11125 -s 1 -d 2 -p cbr -e 210 -c 0 -i 3 -a 0 -x {1.0 3.1 -1 ------- null}
r -t 0.11459 -s 1 -d 2 -p cbr -e 210 -c 0 -i 1 -a 0 -x {1.0 3.1 1 ------- null}
+ -t 0.11459 -s 2 -d 3 -p cbr -e 210 -c 0 -i 1 -a 0 -x {1.0 3.1 1 ------- null}
- -t 0.11459 -s 2 -d 3 -p cbr -e 210 -c 0 -i 1 -a 0 -x {1.0 3.1 1 ------- null}
h -t 0.11459 -s 2 -d 3 -p cbr -e 210 -c 0 -i 1 -a 0 -x {1.0 3.1 -1 ------- null}
+ -t 0.115 -s 1 -d 2 -p cbr -e 210 -c 0 -i 4 -a 0 -x {1.0 3.1 4 ------- null}
- -t 0.115 -s 1 -d 2 -p cbr -e 210 -c 0 -i 4 -a 0 -x {1.0 3.1 4 ------- null}
h -t 0.115 -s 1 -d 2 -p cbr -e 210 -c 0 -i 4 -a 0 -x {1.0 3.1 -1 ------- null}
r -t 0.11834 -s 1 -d 2 -p cbr -e 210 -c 0 -i 2 -a 0 -x {1.0 3.1 2 ------- null}
+ -t 0.11834 -s 2 -d 3 -p cbr -e 210 -c 0 -i 2 -a 0 -x {1.0 3.1 2 ------- null}
- -t 0.11834 -s 2 -d 3 -p cbr -e 210 -c 0 -i 2 -a 0 -x {1.0 3.1 2 ------- null}
h -t 0.11834 -s 2 -d 3 -p cbr -e 210 -c 0 -i 2 -a 0 -x {1.0 3.1 -1 ------- null}
+ -t 0.11875 -s 1 -d 2 -p cbr -e 210 -c 0 -i 5 -a 0 -x {1.0 3.1 5 ------- null}
- -t 0.11875 -s 1 -d 2 -p cbr -e 210 -c 0 -i 5 -a 0 -x {1.0 3.1 5 ------- null}
h -t 0.11875 -s 1 -d 2 -p cbr -e 210 -c 0 -i 5 -a 0 -x {1.0 3.1 -1 ------- null}
r -t 0.12168 -s 2 -d 3 -p cbr -e 210 -c 0 -i 0 -a 0 -x {1.0 3.1 0 ------- null}
r -t 0.12209 -s 1 -d 2 -p cbr -e 210 -c 0 -i 3 -a 0 -x {1.0 3.1 3 ------- null}
+ -t 0.12209 -s 2 -d 3 -p cbr -e 210 -c 0 -i 3 -a 0 -x {1.0 3.1 3 ------- null}
- -t 0.12209 -s 2 -d 3 -p cbr -e 210 -c 0 -i 3 -a 0 -x {1.0 3.1 3 ------- null}
h -t 0.12209 -s 2 -d 3 -p cbr -e 210 -c 0 -i 3 -a 0 -x {1.0 3.1 -1 ------- null}
+ -t 0.1225 -s 1 -d 2 -p cbr -e 210 -c 0 -i 6 -a 0 -x {1.0 3.1 6 ------- null}
- -t 0.1225 -s 1 -d 2 -p cbr -e 210 -c 0 -i 6 -a 0 -x {1.0 3.1 6 ------- null}
h -t 0.1225 -s 1 -d 2 -p cbr -e 210 -c 0 -i 6 -a 0 -x {1.0 3.1 -1 ------- null}
r -t 0.12543 -s 2 -d 3 -p cbr -e 210 -c 0 -i 1 -a 0 -x {1.0 3.1 1 ------- null}
r -t 0.12584 -s 1 -d 2 -p cbr -e 210 -c 0 -i 4 -a 0 -x {1.0 3.1 4 ------- null}
+ -t 0.12584 -s 2 -d 3 -p cbr -e 210 -c 0 -i 4 -a 0 -x {1.0 3.1 4 ------- null}
- -t 0.12584 -s 2 -d 3 -p cbr -e 210 -c 0 -i 4 -a 0 -x {1.0 3.1 4 ------- null}
h -t 0.12584 -s 2 -d 3 -p cbr -e 210 -c 0 -i 4 -a 0 -x {1.0 3.1 -1 ------- null}
+ -t 0.12625 -s 1 -d 2 -p cbr -e 210 -c 0 -i 7 -a 0 -x {1.0 3.1 7 ------- null}
- -t 0.12625 -s 1 -d 2 -p cbr -e 210 -c 0 -i 7 -a 0 -x {1.0 3.1 7 ------- null}
h -t 0.12625 -s 1 -d 2 -p cbr -e 210 -c 0 -i 7 -a 0 -x {1.0 3.1 -1 ------- null}
r -t 0.12918 -s 2 -d 3 -p cbr -e 210 -c 0 -i 2 -a 0 -x {1.0 3.1 2 ------- null}
r -t 0.12959 -s 1 -d 2 -p cbr -e 210 -c 0 -i 5 -a 0 -x {1.0 3.1 5 ------- null}
+ -t 0.12959 -s 2 -d 3 -p cbr -e 210 -c 0 -i 5 -a 0 -x {1.0 3.1 5 ------- null}
- -t 0.12959 -s 2 -d 3 -p cbr -e 210 -c 0 -i 5 -a 0 -x {1.0 3.1 5 ------- null}
h -t 0.12959 -s 2 -d 3 -p cbr -e 210 -c 0 -i 5 -a 0 -x {1.0 3.1 -1 ------- null}
+ -t 0.13 -s 1 -d 2 -p cbr -e 210 -c 0 -i 8 -a 0 -x {1.0 3.1 8 ------- null}
- -t 0.13 -s 1 -d 2 -p cbr -e 210 -c 0 -i 8 -a 0 -x {1.0 3.1 8 ------- null}
h -t 0.13 -s 1 -d 2 -p cbr -e 210 -c 0 -i 8 -a 0 -x {1.0 3.1 -1 ------- null}
r -t 0.13293 -s 2 -d 3 -p cbr -e 210 -c 0 -i 3 -a 0 -x {1.0 3.1 3 ------- null}
r -t 0.13334 -s 1 -d 2 -p cbr -e 210 -c 0 -i 6 -a 0 -x {1.0 3.1 6 ------- null}
+ -t 0.13334 -s 2 -d 3 -p cbr -e 210 -c 0 -i 6 -a 0 -x {1.0 3.1 6 ------- null}
- -t 0.13334 -s 2 -d 3 -p cbr -e 210 -c 0 -i 6 -a 0 -x {1.0 3.1 6 ------- null}
h -t 0.13334 -s 2 -d 3 -p cbr -e 210 -c 0 -i 6 -a 0 -x {1.0 3.1 -1 ------- null}
+ -t 0.13375 -s 1 -d 2 -p cbr -e 210 -c 0 -i 9 -a 0 -x {1.0 3.1 9 ------- null}
- -t 0.13375 -s 1 -d 2 -p cbr -e 210 -c 0 -i 9 -a 0 -x {1.0 3.1 9 ------- null}
h -t 0.13375 -s 1 -d 2 -p cbr -e 210 -c 0 -i 9 -a 0 -x {1.0 3.1 -1 ------- null}
r -t 0.13668 -s 2 -d 3 -p cbr -e 210 -c 0 -i 4 -a 0 -x {1.0 3.1 4 ------- null}
r -t 0.13709 -s 1 -d 2 -p cbr -e 210 -c 0 -i 7 -a 0 -x {1.0 3.1 7 ------- null}
+ -t 0.13709 -s 2 -d 3 -p cbr -e 210 -c 0 -i 7 -a 0 -x {1.0 3.1 7 ------- null}
- -t 0.13709 -s 2 -d 3 -p cbr -e 210 -c 0 -i 7 -a 0 -x {1.0 3.1 7 ------- null}
h -t 0.13709 -s 2 -d 3 -p cbr -e 210 -c 0 -i 7 -a 0 -x {1.0 3.1 -1 ------- null}
+ -t 0.1375 -s 1 -d 2 -p cbr -e 210 -c 0 -i 10 -a 0 -x {1.0 3.1 10 ------- null}
- -t 0.1375 -s 1 -d 2 -p cbr -e 210 -c 0 -i 10 -a 0 -x {1.0 3.1 10 ------- null}
h -t 0.1375 -s 1 -d 2 -p cbr -e 210 -c 0 -i 10 -a 0 -x {1.0 3.1 -1 ------- null}
r -t 0.14043 -s 2 -d 3 -p cbr -e 210 -c 0 -i 5 -a 0 -x {1.0 3.1 5 ------- null}
r -t 0.14084 -s 1 -d 2 -p cbr -e 210 -c 0 -i 8 -a 0 -x {1.0 3.1 8 ------- null}
+ -t 0.14084 -s 2 -d 3 -p cbr -e 210 -c 0 -i 8 -a 0 -x {1.0 3.1 8 ------- null}
- -t 0.14084 -s 2 -d 3 -p cbr -e 210 -c 0 -i 8 -a 0 -x {1.0 3.1 8 ------- null}
h -t 0.14084 -s 2 -d 3 -p cbr -e 210 -c 0 -i 8 -a 0 -x {1.0 3.1 -1 ------- null}
+ -t 0.14125 -s 1 -d 2 -p cbr -e 210 -c 0 -i 11 -a 0 -x {1.0 3.1 11 ------- null}
- -t 0.14125 -s 1 -d 2 -p cbr -e 210 -c 0 -i 11 -a 0 -x {1.0 3.1 11 ------- null}
h -t 0.14125 -s 1 -d 2 -p cbr -e 210 -c 0 -i 11 -a 0 -x {1.0 3.1 -1 ------- null}
r -t 0.14418 -s 2 -d 3 -p cbr -e 210 -c 0 -i 6 -a 0 -x {1.0 3.1 6 ------- null}
r -t 0.14459 -s 1 -d 2 -p cbr -e 210 -c 0 -i 9 -a 0 -x {1.0 3.1 9 ------- null}
+ -t 0.14459 -s 2 -d 3 -p cbr -e 210 -c 0 -i 9 -a 0 -x {1.0 3.1 9 ------- null}
- -t 0.14459 -s 2 -d 3 -p cbr -e 210 -c 0 -i 9 -a 0 -x {1.0 3.1 9 ------- null}
h -t 0.14459 -s 2 -d 3 -p cbr -e 210 -c 0 -i 9 -a 0 -x {1.0 3.1 -1 ------- null}
+ -t 0.145 -s 1 -d 2 -p cbr -e 210 -c 0 -i 12 -a 0 -x {1.0 3.1 12 ------- null}
- -t 0.145 -s 1 -d 2 -p cbr -e 210 -c 0 -i 12 -a 0 -x {1.0 3.1 12 ------- null}
h -t 0.145 -s 1 -d 2 -p cbr -e 210 -c 0 -i 12 -a 0 -x {1.0 3.1 -1 ------- null}
r -t 0.14793 -s 2 -d 3 -p cbr -e 210 -c 0 -i 7 -a 0 -x {1.0 3.1 7 ------- null}
r -t 0.14834 -s 1 -d 2 -p cbr -e 210 -c 0 -i 10 -a 0 -x {1.0 3.1 10 ------- null}
+ -t 0.14834 -s 2 -d 3 -p cbr -e 210 -c 0 -i 10 -a 0 -x {1.0 3.1 10 ------- null}
- -t 0.14834 -s 2 -d 3 -p cbr -e 210 -c 0 -i 10 -a 0 -x {1.0 3.1 10 ------- null}
h -t 0.14834 -s 2 -d 3 -p cbr -e 210 -c 0 -i 10 -a 0 -x {1.0 3.1 -1 ------- null}
+ -t 0.14875 -s 1 -d 2 -p cbr -e 210 -c 0 -i 13 -a 0 -x {1.0 3.1 13 ------- null}
- -t 0.14875 -s 1 -d 2 -p cbr -e 210 -c 0 -i 13 -a 0 -x {1.0 3.1 13 ------- null}
h -t 0.14875 -s 1 -d 2 -p cbr -e 210 -c 0 -i 13 -a 0 -x {1.0 3.1 -1 ------- null}
r -t 0.15168 -s 2 -d 3 -p cbr -e 210 -c 0 -i 8 -a 0 -x {1.0 3.1 8 ------- null}
r -t 0.15209 -s 1 -d 2 -p cbr -e 210 -c 0 -i 11 -a 0 -x {1.0 3.1 11 ------- null}
+ -t 0.15209 -s 2 -d 3 -p cbr -e 210 -c 0 -i 11 -a 0 -x {1.0 3.1 11 ------- null}
- -t 0.15209 -s 2 -d 3 -p cbr -e 210 -c 0 -i 11 -a 0 -x {1.0 3.1 11 ------- null}
h -t 0.15209 -s 2 -d 3 -p cbr -e 210 -c 0 -i 11 -a 0 -x {1.0 3.1 -1 ------- null}
+ -t 0.1525 -s 1 -d 2 -p cbr -e 210 -c 0 -i 14 -a 0 -x {1.0 3.1 14 ------- null}
- -t 0.1525 -s 1 -d 2 -p cbr -e 210 -c 0 -i 14 -a 0 -x {1.0 3.1 14 ------- null}
h -t 0.1525 -s 1 -d 2 -p cbr -e 210 -c 0 -i 14 -a 0 -x {1.0 3.1 -1 ------- null}
r -t 0.15543 -s 2 -d 3 -p cbr -e 210 -c 0 -i 9 -a 0 -x {1.0 3.1 9 ------- null}
r -t 0.15584 -s 1 -d 2 -p cbr -e 210 -c 0 -i 12 -a 0 -x {1.0 3.1 12 ------- null}
+ -t 0.15584 -s 2 -d 3 -p cbr -e 210 -c 0 -i 12 -a 0 -x {1.0 3.1 12 ------- null}
- -t 0.15584 -s 2 -d 3 -p cbr -e 210 -c 0 -i 12 -a 0 -x {1.0 3.1 12 ------- null}
h -t 0.15584 -s 2 -d 3 -p cbr -e 210 -c 0 -i 12 -a 0 -x {1.0 3.1 -1 ------- null}
+ -t 0.15625 -s 1 -d 2 -p cbr -e 210 -c 0 -i 15 -a 0 -x {1.0 3.1 15 ------- null}
- -t 0.15625 -s 1 -d 2 -p cbr -e 210 -c 0 -i 15 -a 0 -x {1.0 3.1 15 ------- null}
h -t 0.15625 -s 1 -d 2 -p cbr -e 210 -c 0 -i 15 -a 0 -x {1.0 3.1 -1 ------- null}
r -t 0.15918 -s 2 -d 3 -p cbr -e 210 -c 0 -i 10 -a 0 -x {1.0 3.1 10 ------- null}
r -t 0.15959 -s 1 -d 2 -p cbr -e 210 -c 0 -i 13 -a 0 -x {1.0 3.1 13 ------- null}
+ -t 0.15959 -s 2 -d 3 -p cbr -e 210 -c 0 -i 13 -a 0 -x {1.0 3.1 13 ------- null}
- -t 0.15959 -s 2 -d 3 -p cbr -e 210 -c 0 -i 13 -a 0 -x {1.0 3.1 13 ------- null}
h -t 0.15959 -s 2 -d 3 -p cbr -e 210 -c 0 -i 13 -a 0 -x {1.0 3.1 -1 ------- null}
+ -t 0.16 -s 1 -d 2 -p cbr -e 210 -c 0 -i 16 -a 0 -x {1.0 3.1 16 ------- null}
- -t 0.16 -s 1 -d 2 -p cbr -e 210 -c 0 -i 16 -a 0 -x {1.0 3.1 16 ------- null}
h -t 0.16 -s 1 -d 2 -p cbr -e 210 -c 0 -i 16 -a 0 -x {1.0 3.1 -1 ------- null}
r -t 0.16293 -s 2 -d 3 -p cbr -e 210 -c 0 -i 11 -a 0 -x {1.0 3.1 11 ------- null}
r -t 0.16334 -s 1 -d 2 -p cbr -e 210 -c 0 -i 14 -a 0 -x {1.0 3.1 14 ------- null}
+ -t 0.16334 -s 2 -d 3 -p cbr -e 210 -c 0 -i 14 -a 0 -x {1.0 3.1 14 ------- null}
- -t 0.16334 -s 2 -d 3 -p cbr -e 210 -c 0 -i 14 -a 0 -x {1.0 3.1 14 ------- null}
h -t 0.16334 -s 2 -d 3 -p cbr -e 210 -c 0 -i 14 -a 0 -x {1.0 3.1 -1 ------- null}
+ -t 0.16375 -s 1 -d 2 -p cbr -e 210 -c 0 -i 17 -a 0 -x {1.0 3.1 17 ------- null}
- -t 0.16375 -s 1 -d 2 -p cbr -e 210 -c 0 -i 17 -a 0 -x {1.0 3.1 17 ------- null}
h -t 0.16375 -s 1 -d 2 -p cbr -e 210 -c 0 -i 17 -a 0 -x {1.0 3.1 -1 ------- null}
r -t 0.16668 -s 2 -d 3 -p cbr -e 210 -c 0 -i 12 -a 0 -x {1.0 3.1 12 ------- null}
r -t 0.16709 -s 1 -d 2 -p cbr -e 210 -c 0 -i 15 -a 0 -x {1.0 3.1 15 ------- null}
+ -t 0.16709 -s 2 -d 3 -p cbr -e 210 -c 0 -i 15 -a 0 -x {1.0 3.1 15 ------- null}
- -t 0.16709 -s 2 -d 3 -p cbr -e 210 -c 0 -i 15 -a 0 -x {1.0 3.1 15 ------- null}
h -t 0.16709 -s 2 -d 3 -p cbr -e 210 -c 0 -i 15 -a 0 -x {1.0 3.1 -1 ------- null}
+ -t 0.1675 -s 1 -d 2 -p cbr -e 210 -c 0 -i 18 -a 0 -x {1.0 3.1 18 ------- null}
- -t 0.1675 -s 1 -d 2 -p cbr -e 210 -c 0 -i 18 -a 0 -x {1.0 3.1 18 ------- null}
h -t 0.1675 -s 1 -d 2 -p cbr -e 210 -c 0 -i 18 -a 0 -x {1.0 3.1 -1 ------- null}
r -t 0.17043 -s 2 -d 3 -p cbr -e 210 -c 0 -i 13 -a 0 -x {1.0 3.1 13 ------- null}
r -t 0.17084 -s 1 -d 2 -p cbr -e 210 -c 0 -i 16 -a 0 -x {1.0 3.1 16 ------- null}
+ -t 0.17084 -s 2 -d 3 -p cbr -e 210 -c 0 -i 16 -a 0 -x {1.0 3.1 16 ------- null}
- -t 0.17084 -s 2 -d 3 -p cbr -e 210 -c 0 -i 16 -a 0 -x {1.0 3.1 16 ------- null}
h -t 0.17084 -s 2 -d 3 -p cbr -e 210 -c 0 -i 16 -a 0 -x {1.0 3.1 -1 ------- null}
+ -t 0.17125 -s 1 -d 2 -p cbr -e 210 -c 0 -i 19 -a 0 -x {1.0 3.1 19 ------- null}
- -t 0.17125 -s 1 -d 2 -p cbr -e 210 -c 0 -i 19 -a 0 -x {1.0 3.1 19 ------- null}
h -t 0.17125 -s 1 -d 2 -p cbr -e 210 -c 0 -i 19 -a 0 -x {1.0 3.1 -1 ------- null}
r -t 0.17418 -s 2 -d 3 -p cbr -e 210 -c 0 -i 14 -a 0 -x {1.0 3.1 14 ------- null}
r -t 0.17459 -s 1 -d 2 -p cbr -e 210 -c 0 -i 17 -a 0 -x {1.0 3.1 17 ------- null}
+ -t 0.17459 -s 2 -d 3 -p cbr -e 210 -c 0 -i 17 -a 0 -x {1.0 3.1 17 ------- null}
- -t 0.17459 -s 2 -d 3 -p cbr -e 210 -c 0 -i 17 -a 0 -x {1.0 3.1 17 ------- null}
h -t 0.17459 -s 2 -d 3 -p cbr -e 210 -c 0 -i 17 -a 0 -x {1.0 3.1 -1 ------- null}
+ -t 0.175 -s 1 -d 2 -p cbr -e 210 -c 0 -i 20 -a 0 -x {1.0 3.1 20 ------- null}
- -t 0.175 -s 1 -d 2 -p cbr -e 210 -c 0 -i 20 -a 0 -x {1.0 3.1 20 ------- null}
h -t 0.175 -s 1 -d 2 -p cbr -e 210 -c 0 -i 20 -a 0 -x {1.0 3.1 -1 ------- null}
r -t 0.17793 -s 2 -d 3 -p cbr -e 210 -c 0 -i 15 -a 0 -x {1.0 3.1 15 ------- null}
r -t 0.17834 -s 1 -d 2 -p cbr -e 210 -c 0 -i 18 -a 0 -x {1.0 3.1 18 ------- null}
+ -t 0.17834 -s 2 -d 3 -p cbr -e 210 -c 0 -i 18 -a 0 -x {1.0 3.1 18 ------- null}
- -t 0.17834 -s 2 -d 3 -p cbr -e 210 -c 0 -i 18 -a 0 -x {1.0 3.1 18 ------- null}
h -t 0.17834 -s 2 -d 3 -p cbr -e 210 -c 0 -i 18 -a 0 -x {1.0 3.1 -1 ------- null}
+ -t 0.17875 -s 1 -d 2 -p cbr -e 210 -c 0 -i 21 -a 0 -x {1.0 3.1 21 ------- null}
- -t 0.17875 -s 1 -d 2 -p cbr -e 210 -c 0 -i 21 -a 0 -x {1.0 3.1 21 ------- null}
h -t 0.17875 -s 1 -d 2 -p cbr -e 210 -c 0 -i 21 -a 0 -x {1.0 3.1 -1 ------- null}
r -t 0.18168 -s 2 -d 3 -p cbr -e 210 -c 0 -i 16 -a 0 -x {1.0 3.1 16 ------- null}
r -t 0.18209 -s 1 -d 2 -p cbr -e 210 -c 0 -i 19 -a 0 -x {1.0 3.1 19 ------- null}
+ -t 0.18209 -s 2 -d 3 -p cbr -e 210 -c 0 -i 19 -a 0 -x {1.0 3.1 19 ------- null}
- -t 0.18209 -s 2 -d 3 -p cbr -e 210 -c 0 -i 19 -a 0 -x {1.0 3.1 19 ------- null}
h -t 0.18209 -s 2 -d 3 -p cbr -e 210 -c 0 -i 19 -a 0 -x {1.0 3.1 -1 ------- null}
+ -t 0.1825 -s 1 -d 2 -p cbr -e 210 -c 0 -i 22 -a 0 -x {1.0 3.1 22 ------- null}
- -t 0.1825 -s 1 -d 2 -p cbr -e 210 -c 0 -i 22 -a 0 -x {1.0 3.1 22 ------- null}
h -t 0.1825 -s 1 -d 2 -p cbr -e 210 -c 0 -i 22 -a 0 -x {1.0 3.1 -1 ------- null}
r -t 0.18543 -s 2 -d 3 -p cbr -e 210 -c 0 -i 17 -a 0 -x {1.0 3.1 17 ------- null}
r -t 0.18584 -s 1 -d 2 -p cbr -e 210 -c 0 -i 20 -a 0 -x {1.0 3.1 20 ------- null}
+ -t 0.18584 -s 2 -d 3 -p cbr -e 210 -c 0 -i 20 -a 0 -x {1.0 3.1 20 ------- null}
- -t 0.18584 -s 2 -d 3 -p cbr -e 210 -c 0 -i 20 -a 0 -x {1.0 3.1 20 ------- null}
h -t 0.18584 -s 2 -d 3 -p cbr -e 210 -c 0 -i 20 -a 0 -x {1.0 3.1 -1 ------- null}
+ -t 0.18625 -s 1 -d 2 -p cbr -e 210 -c 0 -i 23 -a 0 -x {1.0 3.1 23 ------- null}
- -t 0.18625 -s 1 -d 2 -p cbr -e 210 -c 0 -i 23 -a 0 -x {1.0 3.1 23 ------- null}
h -t 0.18625 -s 1 -d 2 -p cbr -e 210 -c 0 -i 23 -a 0 -x {1.0 3.1 -1 ------- null}
r -t 0.18918 -s 2 -d 3 -p cbr -e 210 -c 0 -i 18 -a 0 -x {1.0 3.1 18 ------- null}
r -t 0.18959 -s 1 -d 2 -p cbr -e 210 -c 0 -i 21 -a 0 -x {1.0 3.1 21 ------- null}
+ -t 0.18959 -s 2 -d 3 -p cbr -e 210 -c 0 -i 21 -a 0 -x {1.0 3.1 21 ------- null}
- -t 0.18959 -s 2 -d 3 -p cbr -e 210 -c 0 -i 21 -a 0 -x {1.0 3.1 21 ------- null}
h -t 0.18959 -s 2 -d 3 -p cbr -e 210 -c 0 -i 21 -a 0 -x {1.0 3.1 -1 ------- null}
+ -t 0.19 -s 1 -d 2 -p cbr -e 210 -c 0 -i 24 -a 0 -x {1.0 3.1 24 ------- null}
- -t 0.19 -s 1 -d 2 -p cbr -e 210 -c 0 -i 24 -a 0 -x {1.0 3.1 24 ------- null}
h -t 0.19 -s 1 -d 2 -p cbr -e 210 -c 0 -i 24 -a 0 -x {1.0 3.1 -1 ------- null}
r -t 0.19293 -s 2 -d 3 -p cbr -e 210 -c 0 -i 19 -a 0 -x {1.0 3.1 19 ------- null}
r -t 0.19334 -s 1 -d 2 -p cbr -e 210 -c 0 -i 22 -a 0 -x {1.0 3.1 22 ------- null}
+ -t 0.19334 -s 2 -d 3 -p cbr -e 210 -c 0 -i 22 -a 0 -x {1.0 3.1 22 ------- null}
- -t 0.19334 -s 2 -d 3 -p cbr -e 210 -c 0 -i 22 -a 0 -x {1.0 3.1 22 ------- null}
h -t 0.19334 -s 2 -d 3 -p cbr -e 210 -c 0 -i 22 -a 0 -x {1.0 3.1 -1 ------- null}
+ -t 0.19375 -s 1 -d 2 -p cbr -e 210 -c 0 -i 25 -a 0 -x {1.0 3.1 25 ------- null}
- -t 0.19375 -s 1 -d 2 -p cbr -e 210 -c 0 -i 25 -a 0 -x {1.0 3.1 25 ------- null}
h -t 0.19375 -s 1 -d 2 -p cbr -e 210 -c 0 -i 25 -a 0 -x {1.0 3.1 -1 ------- null}
r -t 0.19668 -s 2 -d 3 -p cbr -e 210 -c 0 -i 20 -a 0 -x {1.0 3.1 20 ------- null}
r -t 0.19709 -s 1 -d 2 -p cbr -e 210 -c 0 -i 23 -a 0 -x {1.0 3.1 23 ------- null}
+ -t 0.19709 -s 2 -d 3 -p cbr -e 210 -c 0 -i 23 -a 0 -x {1.0 3.1 23 ------- null}
- -t 0.19709 -s 2 -d 3 -p cbr -e 210 -c 0 -i 23 -a 0 -x {1.0 3.1 23 ------- null}
h -t 0.19709 -s 2 -d 3 -p cbr -e 210 -c 0 -i 23 -a 0 -x {1.0 3.1 -1 ------- null}
+ -t 0.1975 -s 1 -d 2 -p cbr -e 210 -c 0 -i 26 -a 0 -x {1.0 3.1 26 ------- null}
- -t 0.1975 -s 1 -d 2 -p cbr -e 210 -c 0 -i 26 -a 0 -x {1.0 3.1 26 ------- null}
h -t 0.1975 -s 1 -d 2 -p cbr -e 210 -c 0 -i 26 -a 0 -x {1.0 3.1 -1 ------- null}
r -t 0.20043 -s 2 -d 3 -p cbr -e 210 -c 0 -i 21 -a 0 -x {1.0 3.1 21 ------- null}
r -t 0.20084 -s 1 -d 2 -p cbr -e 210 -c 0 -i 24 -a 0 -x {1.0 3.1 24 ------- null}
+ -t 0.20084 -s 2 -d 3 -p cbr -e 210 -c 0 -i 24 -a 0 -x {1.0 3.1 24 ------- null}
- -t 0.20084 -s 2 -d 3 -p cbr -e 210 -c 0 -i 24 -a 0 -x {1.0 3.1 24 ------- null}
h -t 0.20084 -s 2 -d 3 -p cbr -e 210 -c 0 -i 24 -a 0 -x {1.0 3.1 -1 ------- null}
+ -t 0.20125 -s 1 -d 2 -p cbr -e 210 -c 0 -i 27 -a 0 -x {1.0 3.1 27 ------- null}
- -t 0.20125 -s 1 -d 2 -p cbr -e 210 -c 0 -i 27 -a 0 -x {1.0 3.1 27 ------- null}
h -t 0.20125 -s 1 -d 2 -p cbr -e 210 -c 0 -i 27 -a 0 -x {1.0 3.1 -1 ------- null}
r -t 0.20418 -s 2 -d 3 -p cbr -e 210 -c 0 -i 22 -a 0 -x {1.0 3.1 22 ------- null}
r -t 0.20459 -s 1 -d 2 -p cbr -e 210 -c 0 -i 25 -a 0 -x {1.0 3.1 25 ------- null}
+ -t 0.20459 -s 2 -d 3 -p cbr -e 210 -c 0 -i 25 -a 0 -x {1.0 3.1 25 ------- null}
- -t 0.20459 -s 2 -d 3 -p cbr -e 210 -c 0 -i 25 -a 0 -x {1.0 3.1 25 ------- null}
h -t 0.20459 -s 2 -d 3 -p cbr -e 210 -c 0 -i 25 -a 0 -x {1.0 3.1 -1 ------- null}
+ -t 0.205 -s 1 -d 2 -p cbr -e 210 -c 0 -i 28 -a 0 -x {1.0 3.1 28 ------- null}
- -t 0.205 -s 1 -d 2 -p cbr -e 210 -c 0 -i 28 -a 0 -x {1.0 3.1 28 ------- null}
h -t 0.205 -s 1 -d 2 -p cbr -e 210 -c 0 -i 28 -a 0 -x {1.0 3.1 -1 ------- null}
r -t 0.20793 -s 2 -d 3 -p cbr -e 210 -c 0 -i 23 -a 0 -x {1.0 3.1 23 ------- null}
r -t 0.20834 -s 1 -d 2 -p cbr -e 210 -c 0 -i 26 -a 0 -x {1.0 3.1 26 ------- null}
+ -t 0.20834 -s 2 -d 3 -p cbr -e 210 -c 0 -i 26 -a 0 -x {1.0 3.1 26 ------- null}
- -t 0.20834 -s 2 -d 3 -p cbr -e 210 -c 0 -i 26 -a 0 -x {1.0 3.1 26 ------- null}
h -t 0.20834 -s 2 -d 3 -p cbr -e 210 -c 0 -i 26 -a 0 -x {1.0 3.1 -1 ------- null}
+ -t 0.20875 -s 1 -d 2 -p cbr -e 210 -c 0 -i 29 -a 0 -x {1.0 3.1 29 ------- null}
- -t 0.20875 -s 1 -d 2 -p cbr -e 210 -c 0 -i 29 -a 0 -x {1.0 3.1 29 ------- null}
h -t 0.20875 -s 1 -d 2 -p cbr -e 210 -c 0 -i 29 -a 0 -x {1.0 3.1 -1 ------- null}
r -t 0.21168 -s 2 -d 3 -p cbr -e 210 -c 0 -i 24 -a 0 -x {1.0 3.1 24 ------- null}
r -t 0.21209 -s 1 -d 2 -p cbr -e 210 -c 0 -i 27 -a 0 -x {1.0 3.1 27 ------- null}
+ -t 0.21209 -s 2 -d 3 -p cbr -e 210 -c 0 -i 27 -a 0 -x {1.0 3.1 27 ------- null}
- -t 0.21209 -s 2 -d 3 -p cbr -e 210 -c 0 -i 27 -a 0 -x {1.0 3.1 27 ------- null}
h -t 0.21209 -s 2 -d 3 -p cbr -e 210 -c 0 -i 27 -a 0 -x {1.0 3.1 -1 ------- null}
+ -t 0.2125 -s 1 -d 2 -p cbr -e 210 -c 0 -i 30 -a 0 -x {1.0 3.1 30 ------- null}
- -t 0.2125 -s 1 -d 2 -p cbr -e 210 -c 0 -i 30 -a 0 -x {1.0 3.1 30 ------- null}
h -t 0.2125 -s 1 -d 2 -p cbr -e 210 -c 0 -i 30 -a 0 -x {1.0 3.1 -1 ------- null}
r -t 0.21543 -s 2 -d 3 -p cbr -e 210 -c 0 -i 25 -a 0 -x {1.0 3.1 25 ------- null}
r -t 0.21584 -s 1 -d 2 -p cbr -e 210 -c 0 -i 28 -a 0 -x {1.0 3.1 28 ------- null}
+ -t 0.21584 -s 2 -d 3 -p cbr -e 210 -c 0 -i 28 -a 0 -x {1.0 3.1 28 ------- null}
- -t 0.21584 -s 2 -d 3 -p cbr -e 210 -c 0 -i 28 -a 0 -x {1.0 3.1 28 ------- null}
h -t 0.21584 -s 2 -d 3 -p cbr -e 210 -c 0 -i 28 -a 0 -x {1.0 3.1 -1 ------- null}
+ -t 0.21625 -s 1 -d 2 -p cbr -e 210 -c 0 -i 31 -a 0 -x {1.0 3.1 31 ------- null}
- -t 0.21625 -s 1 -d 2 -p cbr -e 210 -c 0 -i 31 -a 0 -x {1.0 3.1 31 ------- null}
h -t 0.21625 -s 1 -d 2 -p cbr -e 210 -c 0 -i 31 -a 0 -x {1.0 3.1 -1 ------- null}
r -t 0.21918 -s 2 -d 3 -p cbr -e 210 -c 0 -i 26 -a 0 -x {1.0 3.1 26 ------- null}
r -t 0.21959 -s 1 -d 2 -p cbr -e 210 -c 0 -i 29 -a 0 -x {1.0 3.1 29 ------- null}
+ -t 0.21959 -s 2 -d 3 -p cbr -e 210 -c 0 -i 29 -a 0 -x {1.0 3.1 29 ------- null}
- -t 0.21959 -s 2 -d 3 -p cbr -e 210 -c 0 -i 29 -a 0 -x {1.0 3.1 29 ------- null}
h -t 0.21959 -s 2 -d 3 -p cbr -e 210 -c 0 -i 29 -a 0 -x {1.0 3.1 -1 ------- null}
+ -t 0.22 -s 1 -d 2 -p cbr -e 210 -c 0 -i 32 -a 0 -x {1.0 3.1 32 ------- null}
- -t 0.22 -s 1 -d 2 -p cbr -e 210 -c 0 -i 32 -a 0 -x {1.0 3.1 32 ------- null}
h -t 0.22 -s 1 -d 2 -p cbr -e 210 -c 0 -i 32 -a 0 -x {1.0 3.1 -1 ------- null}
r -t 0.22293 -s 2 -d 3 -p cbr -e 210 -c 0 -i 27 -a 0 -x {1.0 3.1 27 ------- null}
r -t 0.22334 -s 1 -d 2 -p cbr -e 210 -c 0 -i 30 -a 0 -x {1.0 3.1 30 ------- null}
+ -t 0.22334 -s 2 -d 3 -p cbr -e 210 -c 0 -i 30 -a 0 -x {1.0 3.1 30 ------- null}
- -t 0.22334 -s 2 -d 3 -p cbr -e 210 -c 0 -i 30 -a 0 -x {1.0 3.1 30 ------- null}
h -t 0.22334 -s 2 -d 3 -p cbr -e 210 -c 0 -i 30 -a 0 -x {1.0 3.1 -1 ------- null}
+ -t 0.22375 -s 1 -d 2 -p cbr -e 210 -c 0 -i 33 -a 0 -x {1.0 3.1 33 ------- null}
- -t 0.22375 -s 1 -d 2 -p cbr -e 210 -c 0 -i 33 -a 0 -x {1.0 3.1 33 ------- null}
h -t 0.22375 -s 1 -d 2 -p cbr -e 210 -c 0 -i 33 -a 0 -x {1.0 3.1 -1 ------- null}
r -t 0.22668 -s 2 -d 3 -p cbr -e 210 -c 0 -i 28 -a 0 -x {1.0 3.1 28 ------- null}
r -t 0.22709 -s 1 -d 2 -p cbr -e 210 -c 0 -i 31 -a 0 -x {1.0 3.1 31 ------- null}
+ -t 0.22709 -s 2 -d 3 -p cbr -e 210 -c 0 -i 31 -a 0 -x {1.0 3.1 31 ------- null}
- -t 0.22709 -s 2 -d 3 -p cbr -e 210 -c 0 -i 31 -a 0 -x {1.0 3.1 31 ------- null}
h -t 0.22709 -s 2 -d 3 -p cbr -e 210 -c 0 -i 31 -a 0 -x {1.0 3.1 -1 ------- null}
+ -t 0.2275 -s 1 -d 2 -p cbr -e 210 -c 0 -i 34 -a 0 -x {1.0 3.1 34 ------- null}
- -t 0.2275 -s 1 -d 2 -p cbr -e 210 -c 0 -i 34 -a 0 -x {1.0 3.1 34 ------- null}
h -t 0.2275 -s 1 -d 2 -p cbr -e 210 -c 0 -i 34 -a 0 -x {1.0 3.1 -1 ------- null}
r -t 0.23043 -s 2 -d 3 -p cbr -e 210 -c 0 -i 29 -a 0 -x {1.0 3.1 29 ------- null}
r -t 0.23084 -s 1 -d 2 -p cbr -e 210 -c 0 -i 32 -a 0 -x {1.0 3.1 32 ------- null}
+ -t 0.23084 -s 2 -d 3 -p cbr -e 210 -c 0 -i 32 -a 0 -x {1.0 3.1 32 ------- null}
- -t 0.23084 -s 2 -d 3 -p cbr -e 210 -c 0 -i 32 -a 0 -x {1.0 3.1 32 ------- null}
h -t 0.23084 -s 2 -d 3 -p cbr -e 210 -c 0 -i 32 -a 0 -x {1.0 3.1 -1 ------- null}
+ -t 0.23125 -s 1 -d 2 -p cbr -e 210 -c 0 -i 35 -a 0 -x {1.0 3.1 35 ------- null}
- -t 0.23125 -s 1 -d 2 -p cbr -e 210 -c 0 -i 35 -a 0 -x {1.0 3.1 35 ------- null}
h -t 0.23125 -s 1 -d 2 -p cbr -e 210 -c 0 -i 35 -a 0 -x {1.0 3.1 -1 ------- null}
r -t 0.23418 -s 2 -d 3 -p cbr -e 210 -c 0 -i 30 -a 0 -x {1.0 3.1 30 ------- null}
r -t 0.23459 -s 1 -d 2 -p cbr -e 210 -c 0 -i 33 -a 0 -x {1.0 3.1 33 ------- null}
+ -t 0.23459 -s 2 -d 3 -p cbr -e 210 -c 0 -i 33 -a 0 -x {1.0 3.1 33 ------- null}
- -t 0.23459 -s 2 -d 3 -p cbr -e 210 -c 0 -i 33 -a 0 -x {1.0 3.1 33 ------- null}
h -t 0.23459 -s 2 -d 3 -p cbr -e 210 -c 0 -i 33 -a 0 -x {1.0 3.1 -1 ------- null}
+ -t 0.235 -s 1 -d 2 -p cbr -e 210 -c 0 -i 36 -a 0 -x {1.0 3.1 36 ------- null}
- -t 0.235 -s 1 -d 2 -p cbr -e 210 -c 0 -i 36 -a 0 -x {1.0 3.1 36 ------- null}
h -t 0.235 -s 1 -d 2 -p cbr -e 210 -c 0 -i 36 -a 0 -x {1.0 3.1 -1 ------- null}
r -t 0.23793 -s 2 -d 3 -p cbr -e 210 -c 0 -i 31 -a 0 -x {1.0 3.1 31 ------- null}
r -t 0.23834 -s 1 -d 2 -p cbr -e 210 -c 0 -i 34 -a 0 -x {1.0 3.1 34 ------- null}
+ -t 0.23834 -s 2 -d 3 -p cbr -e 210 -c 0 -i 34 -a 0 -x {1.0 3.1 34 ------- null}
- -t 0.23834 -s 2 -d 3 -p cbr -e 210 -c 0 -i 34 -a 0 -x {1.0 3.1 34 ------- null}
h -t 0.23834 -s 2 -d 3 -p cbr -e 210 -c 0 -i 34 -a 0 -x {1.0 3.1 -1 ------- null}
+ -t 0.23875 -s 1 -d 2 -p cbr -e 210 -c 0 -i 37 -a 0 -x {1.0 3.1 37 ------- null}
- -t 0.23875 -s 1 -d 2 -p cbr -e 210 -c 0 -i 37 -a 0 -x {1.0 3.1 37 ------- null}
h -t 0.23875 -s 1 -d 2 -p cbr -e 210 -c 0 -i 37 -a 0 -x {1.0 3.1 -1 ------- null}
r -t 0.24168 -s 2 -d 3 -p cbr -e 210 -c 0 -i 32 -a 0 -x {1.0 3.1 32 ------- null}
r -t 0.24209 -s 1 -d 2 -p cbr -e 210 -c 0 -i 35 -a 0 -x {1.0 3.1 35 ------- null}
+ -t 0.24209 -s 2 -d 3 -p cbr -e 210 -c 0 -i 35 -a 0 -x {1.0 3.1 35 ------- null}
- -t 0.24209 -s 2 -d 3 -p cbr -e 210 -c 0 -i 35 -a 0 -x {1.0 3.1 35 ------- null}
h -t 0.24209 -s 2 -d 3 -p cbr -e 210 -c 0 -i 35 -a 0 -x {1.0 3.1 -1 ------- null}
+ -t 0.2425 -s 1 -d 2 -p cbr -e 210 -c 0 -i 38 -a 0 -x {1.0 3.1 38 ------- null}
- -t 0.2425 -s 1 -d 2 -p cbr -e 210 -c 0 -i 38 -a 0 -x {1.0 3.1 38 ------- null}
h -t 0.2425 -s 1 -d 2 -p cbr -e 210 -c 0 -i 38 -a 0 -x {1.0 3.1 -1 ------- null}
r -t 0.24543 -s 2 -d 3 -p cbr -e 210 -c 0 -i 33 -a 0 -x {1.0 3.1 33 ------- null}
r -t 0.24584 -s 1 -d 2 -p cbr -e 210 -c 0 -i 36 -a 0 -x {1.0 3.1 36 ------- null}
+ -t 0.24584 -s 2 -d 3 -p cbr -e 210 -c 0 -i 36 -a 0 -x {1.0 3.1 36 ------- null}
- -t 0.24584 -s 2 -d 3 -p cbr -e 210 -c 0 -i 36 -a 0 -x {1.0 3.1 36 ------- null}
h -t 0.24584 -s 2 -d 3 -p cbr -e 210 -c 0 -i 36 -a 0 -x {1.0 3.1 -1 ------- null}
+ -t 0.24625 -s 1 -d 2 -p cbr -e 210 -c 0 -i 39 -a 0 -x {1.0 3.1 39 ------- null}
- -t 0.24625 -s 1 -d 2 -p cbr -e 210 -c 0 -i 39 -a 0 -x {1.0 3.1 39 ------- null}
h -t 0.24625 -s 1 -d 2 -p cbr -e 210 -c 0 -i 39 -a 0 -x {1.0 3.1 -1 ------- null}
r -t 0.24918 -s 2 -d 3 -p cbr -e 210 -c 0 -i 34 -a 0 -x {1.0 3.1 34 ------- null}
r -t 0.24959 -s 1 -d 2 -p cbr -e 210 -c 0 -i 37 -a 0 -x {1.0 3.1 37 ------- null}
+ -t 0.24959 -s 2 -d 3 -p cbr -e 210 -c 0 -i 37 -a 0 -x {1.0 3.1 37 ------- null}
- -t 0.24959 -s 2 -d 3 -p cbr -e 210 -c 0 -i 37 -a 0 -x {1.0 3.1 37 ------- null}
h -t 0.24959 -s 2 -d 3 -p cbr -e 210 -c 0 -i 37 -a 0 -x {1.0 3.1 -1 ------- null}
+ -t 0.25 -s 1 -d 2 -p cbr -e 210 -c 0 -i 40 -a 0 -x {1.0 3.1 40 ------- null}
- -t 0.25 -s 1 -d 2 -p cbr -e 210 -c 0 -i 40 -a 0 -x {1.0 3.1 40 ------- null}
h -t 0.25 -s 1 -d 2 -p cbr -e 210 -c 0 -i 40 -a 0 -x {1.0 3.1 -1 ------- null}
r -t 0.25293 -s 2 -d 3 -p cbr -e 210 -c 0 -i 35 -a 0 -x {1.0 3.1 35 ------- null}
r -t 0.25334 -s 1 -d 2 -p cbr -e 210 -c 0 -i 38 -a 0 -x {1.0 3.1 38 ------- null}
+ -t 0.25334 -s 2 -d 3 -p cbr -e 210 -c 0 -i 38 -a 0 -x {1.0 3.1 38 ------- null}
- -t 0.25334 -s 2 -d 3 -p cbr -e 210 -c 0 -i 38 -a 0 -x {1.0 3.1 38 ------- null}
h -t 0.25334 -s 2 -d 3 -p cbr -e 210 -c 0 -i 38 -a 0 -x {1.0 3.1 -1 ------- null}
+ -t 0.25375 -s 1 -d 2 -p cbr -e 210 -c 0 -i 41 -a 0 -x {1.0 3.1 41 ------- null}
- -t 0.25375 -s 1 -d 2 -p cbr -e 210 -c 0 -i 41 -a 0 -x {1.0 3.1 41 ------- null}
h -t 0.25375 -s 1 -d 2 -p cbr -e 210 -c 0 -i 41 -a 0 -x {1.0 3.1 -1 ------- null}
r -t 0.25668 -s 2 -d 3 -p cbr -e 210 -c 0 -i 36 -a 0 -x {1.0 3.1 36 ------- null}
r -t 0.25709 -s 1 -d 2 -p cbr -e 210 -c 0 -i 39 -a 0 -x {1.0 3.1 39 ------- null}
+ -t 0.25709 -s 2 -d 3 -p cbr -e 210 -c 0 -i 39 -a 0 -x {1.0 3.1 39 ------- null}
- -t 0.25709 -s 2 -d 3 -p cbr -e 210 -c 0 -i 39 -a 0 -x {1.0 3.1 39 ------- null}
h -t 0.25709 -s 2 -d 3 -p cbr -e 210 -c 0 -i 39 -a 0 -x {1.0 3.1 -1 ------- null}
+ -t 0.2575 -s 1 -d 2 -p cbr -e 210 -c 0 -i 42 -a 0 -x {1.0 3.1 42 ------- null}
- -t 0.2575 -s 1 -d 2 -p cbr -e 210 -c 0 -i 42 -a 0 -x {1.0 3.1 42 ------- null}
h -t 0.2575 -s 1 -d 2 -p cbr -e 210 -c 0 -i 42 -a 0 -x {1.0 3.1 -1 ------- null}
r -t 0.26043 -s 2 -d 3 -p cbr -e 210 -c 0 -i 37 -a 0 -x {1.0 3.1 37 ------- null}
r -t 0.26084 -s 1 -d 2 -p cbr -e 210 -c 0 -i 40 -a 0 -x {1.0 3.1 40 ------- null}
+ -t 0.26084 -s 2 -d 3 -p cbr -e 210 -c 0 -i 40 -a 0 -x {1.0 3.1 40 ------- null}
- -t 0.26084 -s 2 -d 3 -p cbr -e 210 -c 0 -i 40 -a 0 -x {1.0 3.1 40 ------- null}
h -t 0.26084 -s 2 -d 3 -p cbr -e 210 -c 0 -i 40 -a 0 -x {1.0 3.1 -1 ------- null}
+ -t 0.26125 -s 1 -d 2 -p cbr -e 210 -c 0 -i 43 -a 0 -x {1.0 3.1 43 ------- null}
- -t 0.26125 -s 1 -d 2 -p cbr -e 210 -c 0 -i 43 -a 0 -x {1.0 3.1 43 ------- null}
h -t 0.26125 -s 1 -d 2 -p cbr -e 210 -c 0 -i 43 -a 0 -x {1.0 3.1 -1 ------- null}
r -t 0.26418 -s 2 -d 3 -p cbr -e 210 -c 0 -i 38 -a 0 -x {1.0 3.1 38 ------- null}
r -t 0.26459 -s 1 -d 2 -p cbr -e 210 -c 0 -i 41 -a 0 -x {1.0 3.1 41 ------- null}
+ -t 0.26459 -s 2 -d 3 -p cbr -e 210 -c 0 -i 41 -a 0 -x {1.0 3.1 41 ------- null}
- -t 0.26459 -s 2 -d 3 -p cbr -e 210 -c 0 -i 41 -a 0 -x {1.0 3.1 41 ------- null}
h -t 0.26459 -s 2 -d 3 -p cbr -e 210 -c 0 -i 41 -a 0 -x {1.0 3.1 -1 ------- null}
+ -t 0.265 -s 1 -d 2 -p cbr -e 210 -c 0 -i 44 -a 0 -x {1.0 3.1 44 ------- null}
- -t 0.265 -s 1 -d 2 -p cbr -e 210 -c 0 -i 44 -a 0 -x {1.0 3.1 44 ------- null}
h -t 0.265 -s 1 -d 2 -p cbr -e 210 -c 0 -i 44 -a 0 -x {1.0 3.1 -1 ------- null}
r -t 0.26793 -s 2 -d 3 -p cbr -e 210 -c 0 -i 39 -a 0 -x {1.0 3.1 39 ------- null}
r -t 0.26834 -s 1 -d 2 -p cbr -e 210 -c 0 -i 42 -a 0 -x {1.0 3.1 42 ------- null}
+ -t 0.26834 -s 2 -d 3 -p cbr -e 210 -c 0 -i 42 -a 0 -x {1.0 3.1 42 ------- null}
- -t 0.26834 -s 2 -d 3 -p cbr -e 210 -c 0 -i 42 -a 0 -x {1.0 3.1 42 ------- null}
h -t 0.26834 -s 2 -d 3 -p cbr -e 210 -c 0 -i 42 -a 0 -x {1.0 3.1 -1 ------- null}
+ -t 0.26875 -s 1 -d 2 -p cbr -e 210 -c 0 -i 45 -a 0 -x {1.0 3.1 45 ------- null}
- -t 0.26875 -s 1 -d 2 -p cbr -e 210 -c 0 -i 45 -a 0 -x {1.0 3.1 45 ------- null}
h -t 0.26875 -s 1 -d 2 -p cbr -e 210 -c 0 -i 45 -a 0 -x {1.0 3.1 -1 ------- null}
r -t 0.27168 -s 2 -d 3 -p cbr -e 210 -c 0 -i 40 -a 0 -x {1.0 3.1 40 ------- null}
r -t 0.27209 -s 1 -d 2 -p cbr -e 210 -c 0 -i 43 -a 0 -x {1.0 3.1 43 ------- null}
+ -t 0.27209 -s 2 -d 3 -p cbr -e 210 -c 0 -i 43 -a 0 -x {1.0 3.1 43 ------- null}
- -t 0.27209 -s 2 -d 3 -p cbr -e 210 -c 0 -i 43 -a 0 -x {1.0 3.1 43 ------- null}
h -t 0.27209 -s 2 -d 3 -p cbr -e 210 -c 0 -i 43 -a 0 -x {1.0 3.1 -1 ------- null}
+ -t 0.2725 -s 1 -d 2 -p cbr -e 210 -c 0 -i 46 -a 0 -x {1.0 3.1 46 ------- null}
- -t 0.2725 -s 1 -d 2 -p cbr -e 210 -c 0 -i 46 -a 0 -x {1.0 3.1 46 ------- null}
h -t 0.2725 -s 1 -d 2 -p cbr -e 210 -c 0 -i 46 -a 0 -x {1.0 3.1 -1 ------- null}
r -t 0.27543 -s 2 -d 3 -p cbr -e 210 -c 0 -i 41 -a 0 -x {1.0 3.1 41 ------- null}
r -t 0.27584 -s 1 -d 2 -p cbr -e 210 -c 0 -i 44 -a 0 -x {1.0 3.1 44 ------- null}
+ -t 0.27584 -s 2 -d 3 -p cbr -e 210 -c 0 -i 44 -a 0 -x {1.0 3.1 44 ------- null}
- -t 0.27584 -s 2 -d 3 -p cbr -e 210 -c 0 -i 44 -a 0 -x {1.0 3.1 44 ------- null}
h -t 0.27584 -s 2 -d 3 -p cbr -e 210 -c 0 -i 44 -a 0 -x {1.0 3.1 -1 ------- null}