+ 0.2 0 1 ping 64 ------- 0 0.0 2.0 -1 0
- 0.2 0 1 ping 64 ------- 0 0.0 2.0 -1 0
r 0.210512 0 1 ping 64 ------- 0 0.0 2.0 -1 0
+ 0.210512 1 2 ping 64 ------- 0 0.0 2.0 -1 0
- 0.210512 1 2 ping 64 ------- 0 0.0 2.0 -1 0
r 0.221024 1 2 ping 64 ------- 0 0.0 2.0 -1 0
+ 0.221024 2 1 ping 64 ------- 0 2.0 0.0 -1 1
- 0.221024 2 1 ping 64 ------- 0 2.0 0.0 -1 1
r 0.231536 2 1 ping 64 ------- 0 2.0 0.0 -1 1
+ 0.231536 1 0 ping 64 ------- 0 2.0 0.0 -1 1
- 0.231536 1 0 ping 64 ------- 0 2.0 0.0 -1 1
r 0.242048 1 0 ping 64 ------- 0 2.0 0.0 -1 1
+ 0.4 2 1 ping 64 ------- 0 2.0 0.0 -1 2
- 0.4 2 1 ping 64 ------- 0 2.0 0.0 -1 2
r 0.410512 2 1 ping 64 ------- 0 2.0 0.0 -1 2
+ 0.410512 1 0 ping 64 ------- 0 2.0 0.0 -1 2
- 0.410512 1 0 ping 64 ------- 0 2.0 0.0 -1 2
r 0.421024 1 0 ping 64 ------- 0 2.0 0.0 -1 2
+ 0.421024 0 1 ping 64 ------- 0 0.0 2.0 -1 3
- 0.421024 0 1 ping 64 ------- 0 0.0 2.0 -1 3
r 0.431536 0 1 ping 64 ------- 0 0.0 2.0 -1 3
+ 0.431536 1 2 ping 64 ------- 0 0.0 2.0 -1 3
- 0.431536 1 2 ping 64 ------- 0 0.0 2.0 -1 3
r 0.442048 1 2 ping 64 ------- 0 0.0 2.0 -1 3
+ 1.2 0 1 ping 64 ------- 0 0.0 2.0 -1 4
- 1.2 0 1 ping 64 ------- 0 0.0 2.0 -1 4
r 1.210512 0 1 ping 64 ------- 0 0.0 2.0 -1 4
+ 1.210512 1 2 ping 64 ------- 0 0.0 2.0 -1 4
- 1.210512 1 2 ping 64 ------- 0 0.0 2.0 -1 4
r 1.221024 1 2 ping 64 ------- 0 0.0 2.0 -1 4
+ 1.221024 2 1 ping 64 ------- 0 2.0 0.0 -1 5
- 1.221024 2 1 ping 64 ------- 0 2.0 0.0 -1 5
r 1.231536 2 1 ping 64 ------- 0 2.0 0.0 -1 5
+ 1.231536 1 0 ping 64 ------- 0 2.0 0.0 -1 5
- 1.231536 1 0 ping 64 ------- 0 2.0 0.0 -1 5
r 1.242048 1 0 ping 64 ------- 0 2.0 0.0 -1 5
+ 1.7 2 1 ping 64 ------- 0 2.0 0.0 -1 6
- 1.7 2 1 ping 64 ------- 0 2.0 0.0 -1 6
r 1.710512 2 1 ping 64 ------- 0 2.0 0.0 -1 6
+ 1.710512 1 0 ping 64 ------- 0 2.0 0.0 -1 6
- 1.710512 1 0 ping 64 ------- 0 2.0 0.0 -1 6
r 1.721024 1 0 ping 64 ------- 0 2.0 0.0 -1 6
+ 1.721024 0 1 ping 64 ------- 0 0.0 2.0 -1 7
- 1.721024 0 1 ping 64 ------- 0 0.0 2.0 -1 7
r 1.731536 0 1 ping 64 ------- 0 0.0 2.0 -1 7
+ 1.731536 1 2 ping 64 ------- 0 0.0 2.0 -1 7
- 1.731536 1 2 ping 64 ------- 0 0.0 2.0 -1 7
r 1.742048 1 2 ping 64 ------- 0 0.0 2.0 -1 7
