h 0.1 1 8 cbr 210 ------- 0 1.0 5.0 0 0
h 0.10375 1 8 cbr 210 ------- 0 1.0 5.0 1 1
h 0.1075 1 8 cbr 210 ------- 0 1.0 5.0 2 2
+ 0.11 1 8 cbr 210 ------- 0 1.0 5.0 0 0
- 0.11 1 8 cbr 210 ------- 0 1.0 5.0 0 0
d 0.110004 7 8 cbr 210 ------- 0 1.0 5.0 0 0
d 0.110004 6 8 cbr 210 ------- 0 1.0 5.0 0 0
d 0.110004 4 8 cbr 210 ------- 0 1.0 5.0 0 0
d 0.110004 3 8 cbr 210 ------- 0 1.0 5.0 0 0
d 0.110004 2 8 cbr 210 ------- 0 1.0 5.0 0 0
d 0.110004 0 8 cbr 210 ------- 0 1.0 5.0 0 0
h 0.11125 1 8 cbr 210 ------- 0 1.0 5.0 3 3
+ 0.11375 1 8 cbr 210 ------- 0 1.0 5.0 1 1
- 0.11375 1 8 cbr 210 ------- 0 1.0 5.0 1 1
d 0.113754 7 8 cbr 210 ------- 0 1.0 5.0 1 1
d 0.113754 6 8 cbr 210 ------- 0 1.0 5.0 1 1
d 0.113754 4 8 cbr 210 ------- 0 1.0 5.0 1 1
d 0.113754 3 8 cbr 210 ------- 0 1.0 5.0 1 1
d 0.113754 2 8 cbr 210 ------- 0 1.0 5.0 1 1
d 0.113754 0 8 cbr 210 ------- 0 1.0 5.0 1 1
h 0.115 1 8 cbr 210 ------- 0 1.0 5.0 4 4
+ 0.1175 1 8 cbr 210 ------- 0 1.0 5.0 2 2
- 0.1175 1 8 cbr 210 ------- 0 1.0 5.0 2 2
d 0.117504 7 8 cbr 210 ------- 0 1.0 5.0 2 2
d 0.117504 6 8 cbr 210 ------- 0 1.0 5.0 2 2
d 0.117504 4 8 cbr 210 ------- 0 1.0 5.0 2 2
d 0.117504 3 8 cbr 210 ------- 0 1.0 5.0 2 2
d 0.117504 2 8 cbr 210 ------- 0 1.0 5.0 2 2
d 0.117504 0 8 cbr 210 ------- 0 1.0 5.0 2 2
h 0.11875 1 8 cbr 210 ------- 0 1.0 5.0 5 5
r 0.120004 8 5 cbr 210 ------- 0 1.0 5.0 0 0
+ 0.12125 1 8 cbr 210 ------- 0 1.0 5.0 3 3
- 0.12125 1 8 cbr 210 ------- 0 1.0 5.0 3 3
d 0.121254 7 8 cbr 210 ------- 0 1.0 5.0 3 3
d 0.121254 6 8 cbr 210 ------- 0 1.0 5.0 3 3
d 0.121254 4 8 cbr 210 ------- 0 1.0 5.0 3 3
d 0.121254 3 8 cbr 210 ------- 0 1.0 5.0 3 3
d 0.121254 2 8 cbr 210 ------- 0 1.0 5.0 3 3
d 0.121254 0 8 cbr 210 ------- 0 1.0 5.0 3 3
h 0.1225 1 8 cbr 210 ------- 0 1.0 5.0 6 6
r 0.123754 8 5 cbr 210 ------- 0 1.0 5.0 1 1
+ 0.125 1 8 cbr 210 ------- 0 1.0 5.0 4 4
- 0.125 1 8 cbr 210 ------- 0 1.0 5.0 4 4
d 0.125004 7 8 cbr 210 ------- 0 1.0 5.0 4 4
d 0.125004 6 8 cbr 210 ------- 0 1.0 5.0 4 4
d 0.125004 4 8 cbr 210 ------- 0 1.0 5.0 4 4
d 0.125004 3 8 cbr 210 ------- 0 1.0 5.0 4 4
d 0.125004 2 8 cbr 210 ------- 0 1.0 5.0 4 4
d 0.125004 0 8 cbr 210 ------- 0 1.0 5.0 4 4
h 0.12625 1 8 cbr 210 ------- 0 1.0 5.0 7 7
r 0.127504 8 5 cbr 210 ------- 0 1.0 5.0 2 2
+ 0.12875 1 8 cbr 210 ------- 0 1.0 5.0 5 5
- 0.12875 1 8 cbr 210 ------- 0 1.0 5.0 5 5
d 0.128754 7 8 cbr 210 ------- 0 1.0 5.0 5 5
d 0.128754 6 8 cbr 210 ------- 0 1.0 5.0 5 5
d 0.128754 4 8 cbr 210 ------- 0 1.0 5.0 5 5
d 0.128754 3 8 cbr 210 ------- 0 1.0 5.0 5 5
d 0.128754 2 8 cbr 210 ------- 0 1.0 5.0 5 5
d 0.128754 0 8 cbr 210 ------- 0 1.0 5.0 5 5
h 0.13 1 8 cbr 210 ------- 0 1.0 5.0 8 8
r 0.131254 8 5 cbr 210 ------- 0 1.0 5.0 3 3
+ 0.1325 1 8 cbr 210 ------- 0 1.0 5.0 6 6
- 0.1325 1 8 cbr 210 ------- 0 1.0 5.0 6 6
d 0.132504 7 8 cbr 210 ------- 0 1.0 5.0 6 6
d 0.132504 6 8 cbr 210 ------- 0 1.0 5.0 6 6
d 0.132504 4 8 cbr 210 ------- 0 1.0 5.0 6 6
d 0.132504 3 8 cbr 210 ------- 0 1.0 5.0 6 6
d 0.132504 2 8 cbr 210 ------- 0 1.0 5.0 6 6
d 0.132504 0 8 cbr 210 ------- 0 1.0 5.0 6 6
h 0.13375 1 8 cbr 210 ------- 0 1.0 5.0 9 9
r 0.135004 8 5 cbr 210 ------- 0 1.0 5.0 4 4
+ 0.13625 1 8 cbr 210 ------- 0 1.0 5.0 7 7
- 0.13625 1 8 cbr 210 ------- 0 1.0 5.0 7 7
d 0.136254 7 8 cbr 210 ------- 0 1.0 5.0 7 7
d 0.136254 6 8 cbr 210 ------- 0 1.0 5.0 7 7
d 0.136254 4 8 cbr 210 ------- 0 1.0 5.0 7 7
d 0.136254 3 8 cbr 210 ------- 0 1.0 5.0 7 7
d 0.136254 2 8 cbr 210 ------- 0 1.0 5.0 7 7
d 0.136254 0 8 cbr 210 ------- 0 1.0 5.0 7 7
h 0.1375 1 8 cbr 210 ------- 0 1.0 5.0 10 10
r 0.138754 8 5 cbr 210 ------- 0 1.0 5.0 5 5
+ 0.14 1 8 cbr 210 ------- 0 1.0 5.0 8 8
- 0.14 1 8 cbr 210 ------- 0 1.0 5.0 8 8
d 0.140004 7 8 cbr 210 ------- 0 1.0 5.0 8 8
d 0.140004 6 8 cbr 210 ------- 0 1.0 5.0 8 8
d 0.140004 4 8 cbr 210 ------- 0 1.0 5.0 8 8
d 0.140004 3 8 cbr 210 ------- 0 1.0 5.0 8 8
d 0.140004 2 8 cbr 210 ------- 0 1.0 5.0 8 8
d 0.140004 0 8 cbr 210 ------- 0 1.0 5.0 8 8
h 0.14125 1 8 cbr 210 ------- 0 1.0 5.0 11 11
r 0.142504 8 5 cbr 210 ------- 0 1.0 5.0 6 6
+ 0.14375 1 8 cbr 210 ------- 0 1.0 5.0 9 9
- 0.14375 1 8 cbr 210 ------- 0 1.0 5.0 9 9
d 0.143754 7 8 cbr 210 ------- 0 1.0 5.0 9 9
d 0.143754 6 8 cbr 210 ------- 0 1.0 5.0 9 9
d 0.143754 4 8 cbr 210 ------- 0 1.0 5.0 9 9
d 0.143754 3 8 cbr 210 ------- 0 1.0 5.0 9 9
d 0.143754 2 8 cbr 210 ------- 0 1.0 5.0 9 9
d 0.143754 0 8 cbr 210 ------- 0 1.0 5.0 9 9
h 0.145 1 8 cbr 210 ------- 0 1.0 5.0 12 12
r 0.146254 8 5 cbr 210 ------- 0 1.0 5.0 7 7
+ 0.1475 1 8 cbr 210 ------- 0 1.0 5.0 10 10
- 0.1475 1 8 cbr 210 ------- 0 1.0 5.0 10 10
d 0.147504 7 8 cbr 210 ------- 0 1.0 5.0 10 10
d 0.147504 6 8 cbr 210 ------- 0 1.0 5.0 10 10
d 0.147504 4 8 cbr 210 ------- 0 1.0 5.0 10 10
d 0.147504 3 8 cbr 210 ------- 0 1.0 5.0 10 10
d 0.147504 2 8 cbr 210 ------- 0 1.0 5.0 10 10
d 0.147504 0 8 cbr 210 ------- 0 1.0 5.0 10 10
h 0.14875 1 8 cbr 210 ------- 0 1.0 5.0 13 13
r 0.150004 8 5 cbr 210 ------- 0 1.0 5.0 8 8
+ 0.15125 1 8 cbr 210 ------- 0 1.0 5.0 11 11
- 0.15125 1 8 cbr 210 ------- 0 1.0 5.0 11 11
d 0.151254 7 8 cbr 210 ------- 0 1.0 5.0 11 11
d 0.151254 6 8 cbr 210 ------- 0 1.0 5.0 11 11
d 0.151254 4 8 cbr 210 ------- 0 1.0 5.0 11 11
d 0.151254 3 8 cbr 210 ------- 0 1.0 5.0 11 11
d 0.151254 2 8 cbr 210 ------- 0 1.0 5.0 11 11
d 0.151254 0 8 cbr 210 ------- 0 1.0 5.0 11 11
h 0.1525 1 8 cbr 210 ------- 0 1.0 5.0 14 14
r 0.153754 8 5 cbr 210 ------- 0 1.0 5.0 9 9
+ 0.155 1 8 cbr 210 ------- 0 1.0 5.0 12 12
- 0.155 1 8 cbr 210 ------- 0 1.0 5.0 12 12
d 0.155004 7 8 cbr 210 ------- 0 1.0 5.0 12 12
d 0.155004 6 8 cbr 210 ------- 0 1.0 5.0 12 12
d 0.155004 4 8 cbr 210 ------- 0 1.0 5.0 12 12
d 0.155004 3 8 cbr 210 ------- 0 1.0 5.0 12 12
d 0.155004 2 8 cbr 210 ------- 0 1.0 5.0 12 12
d 0.155004 0 8 cbr 210 ------- 0 1.0 5.0 12 12
h 0.15625 1 8 cbr 210 ------- 0 1.0 5.0 15 15
r 0.157504 8 5 cbr 210 ------- 0 1.0 5.0 10 10
+ 0.15875 1 8 cbr 210 ------- 0 1.0 5.0 13 13
- 0.15875 1 8 cbr 210 ------- 0 1.0 5.0 13 13
d 0.158754 7 8 cbr 210 ------- 0 1.0 5.0 13 13
d 0.158754 6 8 cbr 210 ------- 0 1.0 5.0 13 13
d 0.158754 4 8 cbr 210 ------- 0 1.0 5.0 13 13
d 0.158754 3 8 cbr 210 ------- 0 1.0 5.0 13 13
d 0.158754 2 8 cbr 210 ------- 0 1.0 5.0 13 13
d 0.158754 0 8 cbr 210 ------- 0 1.0 5.0 13 13
h 0.16 1 8 cbr 210 ------- 0 1.0 5.0 16 16
r 0.161254 8 5 cbr 210 ------- 0 1.0 5.0 11 11
+ 0.1625 1 8 cbr 210 ------- 0 1.0 5.0 14 14
- 0.1625 1 8 cbr 210 ------- 0 1.0 5.0 14 14
d 0.162504 7 8 cbr 210 ------- 0 1.0 5.0 14 14
d 0.162504 6 8 cbr 210 ------- 0 1.0 5.0 14 14
d 0.162504 4 8 cbr 210 ------- 0 1.0 5.0 14 14
d 0.162504 3 8 cbr 210 ------- 0 1.0 5.0 14 14
d 0.162504 2 8 cbr 210 ------- 0 1.0 5.0 14 14
d 0.162504 0 8 cbr 210 ------- 0 1.0 5.0 14 14
h 0.16375 1 8 cbr 210 ------- 0 1.0 5.0 17 17
r 0.165004 8 5 cbr 210 ------- 0 1.0 5.0 12 12
+ 0.16625 1 8 cbr 210 ------- 0 1.0 5.0 15 15
- 0.16625 1 8 cbr 210 ------- 0 1.0 5.0 15 15
d 0.166254 7 8 cbr 210 ------- 0 1.0 5.0 15 15
d 0.166254 6 8 cbr 210 ------- 0 1.0 5.0 15 15
d 0.166254 4 8 cbr 210 ------- 0 1.0 5.0 15 15
d 0.166254 3 8 cbr 210 ------- 0 1.0 5.0 15 15
d 0.166254 2 8 cbr 210 ------- 0 1.0 5.0 15 15
d 0.166254 0 8 cbr 210 ------- 0 1.0 5.0 15 15
h 0.1675 1 8 cbr 210 ------- 0 1.0 5.0 18 18
r 0.168754 8 5 cbr 210 ------- 0 1.0 5.0 13 13
+ 0.17 1 8 cbr 210 ------- 0 1.0 5.0 16 16
- 0.17 1 8 cbr 210 ------- 0 1.0 5.0 16 16
d 0.170004 7 8 cbr 210 ------- 0 1.0 5.0 16 16
d 0.170004 6 8 cbr 210 ------- 0 1.0 5.0 16 16
d 0.170004 4 8 cbr 210 ------- 0 1.0 5.0 16 16
d 0.170004 3 8 cbr 210 ------- 0 1.0 5.0 16 16
d 0.170004 2 8 cbr 210 ------- 0 1.0 5.0 16 16
d 0.170004 0 8 cbr 210 ------- 0 1.0 5.0 16 16
h 0.17125 1 8 cbr 210 ------- 0 1.0 5.0 19 19
r 0.172504 8 5 cbr 210 ------- 0 1.0 5.0 14 14
+ 0.17375 1 8 cbr 210 ------- 0 1.0 5.0 17 17
- 0.17375 1 8 cbr 210 ------- 0 1.0 5.0 17 17
d 0.173754 7 8 cbr 210 ------- 0 1.0 5.0 17 17
d 0.173754 6 8 cbr 210 ------- 0 1.0 5.0 17 17
d 0.173754 4 8 cbr 210 ------- 0 1.0 5.0 17 17
d 0.173754 3 8 cbr 210 ------- 0 1.0 5.0 17 17
d 0.173754 2 8 cbr 210 ------- 0 1.0 5.0 17 17
d 0.173754 0 8 cbr 210 ------- 0 1.0 5.0 17 17
h 0.175 1 8 cbr 210 ------- 0 1.0 5.0 20 20
r 0.176254 8 5 cbr 210 ------- 0 1.0 5.0 15 15
+ 0.1775 1 8 cbr 210 ------- 0 1.0 5.0 18 18
- 0.1775 1 8 cbr 210 ------- 0 1.0 5.0 18 18
d 0.177504 7 8 cbr 210 ------- 0 1.0 5.0 18 18
d 0.177504 6 8 cbr 210 ------- 0 1.0 5.0 18 18
d 0.177504 4 8 cbr 210 ------- 0 1.0 5.0 18 18
d 0.177504 3 8 cbr 210 ------- 0 1.0 5.0 18 18
d 0.177504 2 8 cbr 210 ------- 0 1.0 5.0 18 18
d 0.177504 0 8 cbr 210 ------- 0 1.0 5.0 18 18
h 0.17875 1 8 cbr 210 ------- 0 1.0 5.0 21 21
r 0.180004 8 5 cbr 210 ------- 0 1.0 5.0 16 16
+ 0.18125 1 8 cbr 210 ------- 0 1.0 5.0 19 19
- 0.18125 1 8 cbr 210 ------- 0 1.0 5.0 19 19
d 0.181254 7 8 cbr 210 ------- 0 1.0 5.0 19 19
d 0.181254 6 8 cbr 210 ------- 0 1.0 5.0 19 19
d 0.181254 4 8 cbr 210 ------- 0 1.0 5.0 19 19
d 0.181254 3 8 cbr 210 ------- 0 1.0 5.0 19 19
d 0.181254 2 8 cbr 210 ------- 0 1.0 5.0 19 19
d 0.181254 0 8 cbr 210 ------- 0 1.0 5.0 19 19
h 0.1825 1 8 cbr 210 ------- 0 1.0 5.0 22 22
r 0.183754 8 5 cbr 210 ------- 0 1.0 5.0 17 17
+ 0.185 1 8 cbr 210 ------- 0 1.0 5.0 20 20
- 0.185 1 8 cbr 210 ------- 0 1.0 5.0 20 20
d 0.185004 7 8 cbr 210 ------- 0 1.0 5.0 20 20
d 0.185004 6 8 cbr 210 ------- 0 1.0 5.0 20 20
d 0.185004 4 8 cbr 210 ------- 0 1.0 5.0 20 20
d 0.185004 3 8 cbr 210 ------- 0 1.0 5.0 20 20
d 0.185004 2 8 cbr 210 ------- 0 1.0 5.0 20 20
d 0.185004 0 8 cbr 210 ------- 0 1.0 5.0 20 20
h 0.18625 1 8 cbr 210 ------- 0 1.0 5.0 23 23
r 0.187504 8 5 cbr 210 ------- 0 1.0 5.0 18 18
+ 0.18875 1 8 cbr 210 ------- 0 1.0 5.0 21 21
- 0.18875 1 8 cbr 210 ------- 0 1.0 5.0 21 21
d 0.188754 7 8 cbr 210 ------- 0 1.0 5.0 21 21
d 0.188754 6 8 cbr 210 ------- 0 1.0 5.0 21 21
d 0.188754 4 8 cbr 210 ------- 0 1.0 5.0 21 21
d 0.188754 3 8 cbr 210 ------- 0 1.0 5.0 21 21
d 0.188754 2 8 cbr 210 ------- 0 1.0 5.0 21 21
d 0.188754 0 8 cbr 210 ------- 0 1.0 5.0 21 21
h 0.19 1 8 cbr 210 ------- 0 1.0 5.0 24 24
r 0.191254 8 5 cbr 210 ------- 0 1.0 5.0 19 19
+ 0.1925 1 8 cbr 210 ------- 0 1.0 5.0 22 22
- 0.1925 1 8 cbr 210 ------- 0 1.0 5.0 22 22
d 0.192504 7 8 cbr 210 ------- 0 1.0 5.0 22 22
d 0.192504 6 8 cbr 210 ------- 0 1.0 5.0 22 22
d 0.192504 4 8 cbr 210 ------- 0 1.0 5.0 22 22
d 0.192504 3 8 cbr 210 ------- 0 1.0 5.0 22 22
d 0.192504 2 8 cbr 210 ------- 0 1.0 5.0 22 22
d 0.192504 0 8 cbr 210 ------- 0 1.0 5.0 22 22
h 0.19375 1 8 cbr 210 ------- 0 1.0 5.0 25 25
r 0.195004 8 5 cbr 210 ------- 0 1.0 5.0 20 20
+ 0.19625 1 8 cbr 210 ------- 0 1.0 5.0 23 23
- 0.19625 1 8 cbr 210 ------- 0 1.0 5.0 23 23
d 0.196254 7 8 cbr 210 ------- 0 1.0 5.0 23 23
d 0.196254 6 8 cbr 210 ------- 0 1.0 5.0 23 23
d 0.196254 4 8 cbr 210 ------- 0 1.0 5.0 23 23
d 0.196254 3 8 cbr 210 ------- 0 1.0 5.0 23 23
d 0.196254 2 8 cbr 210 ------- 0 1.0 5.0 23 23
d 0.196254 0 8 cbr 210 ------- 0 1.0 5.0 23 23
h 0.1975 1 8 cbr 210 ------- 0 1.0 5.0 26 26
r 0.198754 8 5 cbr 210 ------- 0 1.0 5.0 21 21
+ 0.2 1 8 cbr 210 ------- 0 1.0 5.0 24 24
- 0.2 1 8 cbr 210 ------- 0 1.0 5.0 24 24
d 0.200004 7 8 cbr 210 ------- 0 1.0 5.0 24 24
d 0.200004 6 8 cbr 210 ------- 0 1.0 5.0 24 24
d 0.200004 4 8 cbr 210 ------- 0 1.0 5.0 24 24
d 0.200004 3 8 cbr 210 ------- 0 1.0 5.0 24 24
d 0.200004 2 8 cbr 210 ------- 0 1.0 5.0 24 24
d 0.200004 0 8 cbr 210 ------- 0 1.0 5.0 24 24
h 0.20125 1 8 cbr 210 ------- 0 1.0 5.0 27 27
r 0.202504 8 5 cbr 210 ------- 0 1.0 5.0 22 22
+ 0.20375 1 8 cbr 210 ------- 0 1.0 5.0 25 25
- 0.20375 1 8 cbr 210 ------- 0 1.0 5.0 25 25
d 0.203754 7 8 cbr 210 ------- 0 1.0 5.0 25 25
d 0.203754 6 8 cbr 210 ------- 0 1.0 5.0 25 25
d 0.203754 4 8 cbr 210 ------- 0 1.0 5.0 25 25
d 0.203754 3 8 cbr 210 ------- 0 1.0 5.0 25 25
d 0.203754 2 8 cbr 210 ------- 0 1.0 5.0 25 25
d 0.203754 0 8 cbr 210 ------- 0 1.0 5.0 25 25
h 0.205 1 8 cbr 210 ------- 0 1.0 5.0 28 28
r 0.206254 8 5 cbr 210 ------- 0 1.0 5.0 23 23
+ 0.2075 1 8 cbr 210 ------- 0 1.0 5.0 26 26
- 0.2075 1 8 cbr 210 ------- 0 1.0 5.0 26 26
d 0.207504 7 8 cbr 210 ------- 0 1.0 5.0 26 26
d 0.207504 6 8 cbr 210 ------- 0 1.0 5.0 26 26
d 0.207504 4 8 cbr 210 ------- 0 1.0 5.0 26 26
d 0.207504 3 8 cbr 210 ------- 0 1.0 5.0 26 26
d 0.207504 2 8 cbr 210 ------- 0 1.0 5.0 26 26
d 0.207504 0 8 cbr 210 ------- 0 1.0 5.0 26 26
h 0.20875 1 8 cbr 210 ------- 0 1.0 5.0 29 29
r 0.210004 8 5 cbr 210 ------- 0 1.0 5.0 24 24
+ 0.21125 1 8 cbr 210 ------- 0 1.0 5.0 27 27
- 0.21125 1 8 cbr 210 ------- 0 1.0 5.0 27 27
d 0.211254 7 8 cbr 210 ------- 0 1.0 5.0 27 27
d 0.211254 6 8 cbr 210 ------- 0 1.0 5.0 27 27
d 0.211254 4 8 cbr 210 ------- 0 1.0 5.0 27 27
d 0.211254 3 8 cbr 210 ------- 0 1.0 5.0 27 27
d 0.211254 2 8 cbr 210 ------- 0 1.0 5.0 27 27
d 0.211254 0 8 cbr 210 ------- 0 1.0 5.0 27 27
h 0.2125 1 8 cbr 210 ------- 0 1.0 5.0 30 30
r 0.213754 8 5 cbr 210 ------- 0 1.0 5.0 25 25
+ 0.215 1 8 cbr 210 ------- 0 1.0 5.0 28 28
- 0.215 1 8 cbr 210 ------- 0 1.0 5.0 28 28
d 0.215004 7 8 cbr 210 ------- 0 1.0 5.0 28 28
d 0.215004 6 8 cbr 210 ------- 0 1.0 5.0 28 28
d 0.215004 4 8 cbr 210 ------- 0 1.0 5.0 28 28
d 0.215004 3 8 cbr 210 ------- 0 1.0 5.0 28 28
d 0.215004 2 8 cbr 210 ------- 0 1.0 5.0 28 28
d 0.215004 0 8 cbr 210 ------- 0 1.0 5.0 28 28
h 0.21625 1 8 cbr 210 ------- 0 1.0 5.0 31 31
r 0.217504 8 5 cbr 210 ------- 0 1.0 5.0 26 26
+ 0.21875 1 8 cbr 210 ------- 0 1.0 5.0 29 29
- 0.21875 1 8 cbr 210 ------- 0 1.0 5.0 29 29
d 0.218754 7 8 cbr 210 ------- 0 1.0 5.0 29 29
d 0.218754 6 8 cbr 210 ------- 0 1.0 5.0 29 29
d 0.218754 4 8 cbr 210 ------- 0 1.0 5.0 29 29
d 0.218754 3 8 cbr 210 ------- 0 1.0 5.0 29 29
d 0.218754 2 8 cbr 210 ------- 0 1.0 5.0 29 29
d 0.218754 0 8 cbr 210 ------- 0 1.0 5.0 29 29
h 0.22 1 8 cbr 210 ------- 0 1.0 5.0 32 32
r 0.221254 8 5 cbr 210 ------- 0 1.0 5.0 27 27
+ 0.2225 1 8 cbr 210 ------- 0 1.0 5.0 30 30
- 0.2225 1 8 cbr 210 ------- 0 1.0 5.0 30 30
d 0.222504 7 8 cbr 210 ------- 0 1.0 5.0 30 30
d 0.222504 6 8 cbr 210 ------- 0 1.0 5.0 30 30
d 0.222504 4 8 cbr 210 ------- 0 1.0 5.0 30 30
d 0.222504 3 8 cbr 210 ------- 0 1.0 5.0 30 30
d 0.222504 2 8 cbr 210 ------- 0 1.0 5.0 30 30
d 0.222504 0 8 cbr 210 ------- 0 1.0 5.0 30 30
h 0.22375 1 8 cbr 210 ------- 0 1.0 5.0 33 33
r 0.225004 8 5 cbr 210 ------- 0 1.0 5.0 28 28
+ 0.22625 1 8 cbr 210 ------- 0 1.0 5.0 31 31
- 0.22625 1 8 cbr 210 ------- 0 1.0 5.0 31 31
d 0.226254 7 8 cbr 210 ------- 0 1.0 5.0 31 31
d 0.226254 6 8 cbr 210 ------- 0 1.0 5.0 31 31
d 0.226254 4 8 cbr 210 ------- 0 1.0 5.0 31 31
d 0.226254 3 8 cbr 210 ------- 0 1.0 5.0 31 31
d 0.226254 2 8 cbr 210 ------- 0 1.0 5.0 31 31
d 0.226254 0 8 cbr 210 ------- 0 1.0 5.0 31 31
h 0.2275 1 8 cbr 210 ------- 0 1.0 5.0 34 34
r 0.228754 8 5 cbr 210 ------- 0 1.0 5.0 29 29
+ 0.23 1 8 cbr 210 ------- 0 1.0 5.0 32 32
- 0.23 1 8 cbr 210 ------- 0 1.0 5.0 32 32
d 0.230004 7 8 cbr 210 ------- 0 1.0 5.0 32 32
d 0.230004 6 8 cbr 210 ------- 0 1.0 5.0 32 32
d 0.230004 4 8 cbr 210 ------- 0 1.0 5.0 32 32
d 0.230004 3 8 cbr 210 ------- 0 1.0 5.0 32 32
d 0.230004 2 8 cbr 210 ------- 0 1.0 5.0 32 32
d 0.230004 0 8 cbr 210 ------- 0 1.0 5.0 32 32
h 0.23125 1 8 cbr 210 ------- 0 1.0 5.0 35 35
r 0.232504 8 5 cbr 210 ------- 0 1.0 5.0 30 30
+ 0.23375 1 8 cbr 210 ------- 0 1.0 5.0 33 33
- 0.23375 1 8 cbr 210 ------- 0 1.0 5.0 33 33
d 0.233754 7 8 cbr 210 ------- 0 1.0 5.0 33 33
d 0.233754 6 8 cbr 210 ------- 0 1.0 5.0 33 33
d 0.233754 4 8 cbr 210 ------- 0 1.0 5.0 33 33
d 0.233754 3 8 cbr 210 ------- 0 1.0 5.0 33 33
d 0.233754 2 8 cbr 210 ------- 0 1.0 5.0 33 33
d 0.233754 0 8 cbr 210 ------- 0 1.0 5.0 33 33
h 0.235 1 8 cbr 210 ------- 0 1.0 5.0 36 36
r 0.236254 8 5 cbr 210 ------- 0 1.0 5.0 31 31
+ 0.2375 1 8 cbr 210 ------- 0 1.0 5.0 34 34
- 0.2375 1 8 cbr 210 ------- 0 1.0 5.0 34 34
d 0.237504 7 8 cbr 210 ------- 0 1.0 5.0 34 34
d 0.237504 6 8 cbr 210 ------- 0 1.0 5.0 34 34
d 0.237504 4 8 cbr 210 ------- 0 1.0 5.0 34 34
d 0.237504 3 8 cbr 210 ------- 0 1.0 5.0 34 34
d 0.237504 2 8 cbr 210 ------- 0 1.0 5.0 34 34
d 0.237504 0 8 cbr 210 ------- 0 1.0 5.0 34 34
h 0.23875 1 8 cbr 210 ------- 0 1.0 5.0 37 37
r 0.240004 8 5 cbr 210 ------- 0 1.0 5.0 32 32
+ 0.24125 1 8 cbr 210 ------- 0 1.0 5.0 35 35
- 0.24125 1 8 cbr 210 ------- 0 1.0 5.0 35 35
d 0.241254 7 8 cbr 210 ------- 0 1.0 5.0 35 35
d 0.241254 6 8 cbr 210 ------- 0 1.0 5.0 35 35
d 0.241254 4 8 cbr 210 ------- 0 1.0 5.0 35 35
d 0.241254 3 8 cbr 210 ------- 0 1.0 5.0 35 35
d 0.241254 2 8 cbr 210 ------- 0 1.0 5.0 35 35
d 0.241254 0 8 cbr 210 ------- 0 1.0 5.0 35 35
h 0.2425 1 8 cbr 210 ------- 0 1.0 5.0 38 38
r 0.243754 8 5 cbr 210 ------- 0 1.0 5.0 33 33
+ 0.245 1 8 cbr 210 ------- 0 1.0 5.0 36 36
- 0.245 1 8 cbr 210 ------- 0 1.0 5.0 36 36
d 0.245004 7 8 cbr 210 ------- 0 1.0 5.0 36 36
d 0.245004 6 8 cbr 210 ------- 0 1.0 5.0 36 36
d 0.245004 4 8 cbr 210 ------- 0 1.0 5.0 36 36
d 0.245004 3 8 cbr 210 ------- 0 1.0 5.0 36 36
d 0.245004 2 8 cbr 210 ------- 0 1.0 5.0 36 36
d 0.245004 0 8 cbr 210 ------- 0 1.0 5.0 36 36
h 0.24625 1 8 cbr 210 ------- 0 1.0 5.0 39 39
r 0.247504 8 5 cbr 210 ------- 0 1.0 5.0 34 34
+ 0.24875 1 8 cbr 210 ------- 0 1.0 5.0 37 37
- 0.24875 1 8 cbr 210 ------- 0 1.0 5.0 37 37
d 0.248754 7 8 cbr 210 ------- 0 1.0 5.0 37 37
d 0.248754 6 8 cbr 210 ------- 0 1.0 5.0 37 37
d 0.248754 4 8 cbr 210 ------- 0 1.0 5.0 37 37
d 0.248754 3 8 cbr 210 ------- 0 1.0 5.0 37 37
d 0.248754 2 8 cbr 210 ------- 0 1.0 5.0 37 37
d 0.248754 0 8 cbr 210 ------- 0 1.0 5.0 37 37
h 0.25 1 8 cbr 210 ------- 0 1.0 5.0 40 40
r 0.251254 8 5 cbr 210 ------- 0 1.0 5.0 35 35
+ 0.2525 1 8 cbr 210 ------- 0 1.0 5.0 38 38
- 0.2525 1 8 cbr 210 ------- 0 1.0 5.0 38 38
d 0.252504 7 8 cbr 210 ------- 0 1.0 5.0 38 38
d 0.252504 6 8 cbr 210 ------- 0 1.0 5.0 38 38
d 0.252504 4 8 cbr 210 ------- 0 1.0 5.0 38 38
d 0.252504 3 8 cbr 210 ------- 0 1.0 5.0 38 38
d 0.252504 2 8 cbr 210 ------- 0 1.0 5.0 38 38
d 0.252504 0 8 cbr 210 ------- 0 1.0 5.0 38 38
h 0.25375 1 8 cbr 210 ------- 0 1.0 5.0 41 41
r 0.255004 8 5 cbr 210 ------- 0 1.0 5.0 36 36
+ 0.25625 1 8 cbr 210 ------- 0 1.0 5.0 39 39
- 0.25625 1 8 cbr 210 ------- 0 1.0 5.0 39 39
d 0.256254 7 8 cbr 210 ------- 0 1.0 5.0 39 39
d 0.256254 6 8 cbr 210 ------- 0 1.0 5.0 39 39
d 0.256254 4 8 cbr 210 ------- 0 1.0 5.0 39 39
d 0.256254 3 8 cbr 210 ------- 0 1.0 5.0 39 39
d 0.256254 2 8 cbr 210 ------- 0 1.0 5.0 39 39
d 0.256254 0 8 cbr 210 ------- 0 1.0 5.0 39 39
h 0.2575 1 8 cbr 210 ------- 0 1.0 5.0 42 42
r 0.258754 8 5 cbr 210 ------- 0 1.0 5.0 37 37
+ 0.26 1 8 cbr 210 ------- 0 1.0 5.0 40 40
- 0.26 1 8 cbr 210 ------- 0 1.0 5.0 40 40
d 0.260004 7 8 cbr 210 ------- 0 1.0 5.0 40 40
d 0.260004 6 8 cbr 210 ------- 0 1.0 5.0 40 40
d 0.260004 4 8 cbr 210 ------- 0 1.0 5.0 40 40
d 0.260004 3 8 cbr 210 ------- 0 1.0 5.0 40 40
d 0.260004 2 8 cbr 210 ------- 0 1.0 5.0 40 40
d 0.260004 0 8 cbr 210 ------- 0 1.0 5.0 40 40
h 0.26125 1 8 cbr 210 ------- 0 1.0 5.0 43 43
r 0.262504 8 5 cbr 210 ------- 0 1.0 5.0 38 38
+ 0.26375 1 8 cbr 210 ------- 0 1.0 5.0 41 41
- 0.26375 1 8 cbr 210 ------- 0 1.0 5.0 41 41
d 0.263754 7 8 cbr 210 ------- 0 1.0 5.0 41 41
d 0.263754 6 8 cbr 210 ------- 0 1.0 5.0 41 41
d 0.263754 4 8 cbr 210 ------- 0 1.0 5.0 41 41
d 0.263754 3 8 cbr 210 ------- 0 1.0 5.0 41 41
d 0.263754 2 8 cbr 210 ------- 0 1.0 5.0 41 41
d 0.263754 0 8 cbr 210 ------- 0 1.0 5.0 41 41
h 0.265 1 8 cbr 210 ------- 0 1.0 5.0 44 44
r 0.266254 8 5 cbr 210 ------- 0 1.0 5.0 39 39
+ 0.2675 1 8 cbr 210 ------- 0 1.0 5.0 42 42
- 0.2675 1 8 cbr 210 ------- 0 1.0 5.0 42 42
d 0.267504 7 8 cbr 210 ------- 0 1.0 5.0 42 42
d 0.267504 6 8 cbr 210 ------- 0 1.0 5.0 42 42
d 0.267504 4 8 cbr 210 ------- 0 1.0 5.0 42 42
d 0.267504 3 8 cbr 210 ------- 0 1.0 5.0 42 42
d 0.267504 2 8 cbr 210 ------- 0 1.0 5.0 42 42
d 0.267504 0 8 cbr 210 ------- 0 1.0 5.0 42 42
h 0.26875 1 8 cbr 210 ------- 0 1.0 5.0 45 45
r 0.270004 8 5 cbr 210 ------- 0 1.0 5.0 40 40
+ 0.27125 1 8 cbr 210 ------- 0 1.0 5.0 43 43
- 0.27125 1 8 cbr 210 ------- 0 1.0 5.0 43 43
d 0.271254 7 8 cbr 210 ------- 0 1.0 5.0 43 43
d 0.271254 6 8 cbr 210 ------- 0 1.0 5.0 43 43
d 0.271254 4 8 cbr 210 ------- 0 1.0 5.0 43 43
d 0.271254 3 8 cbr 210 ------- 0 1.0 5.0 43 43
d 0.271254 2 8 cbr 210 ------- 0 1.0 5.0 43 43
d 0.271254 0 8 cbr 210 ------- 0 1.0 5.0 43 43
h 0.2725 1 8 cbr 210 ------- 0 1.0 5.0 46 46
r 0.273754 8 5 cbr 210 ------- 0 1.0 5.0 41 41
+ 0.275 1 8 cbr 210 ------- 0 1.0 5.0 44 44
- 0.275 1 8 cbr 210 ------- 0 1.0 5.0 44 44
d 0.275004 7 8 cbr 210 ------- 0 1.0 5.0 44 44
d 0.275004 6 8 cbr 210 ------- 0 1.0 5.0 44 44
d 0.275004 4 8 cbr 210 ------- 0 1.0 5.0 44 44
d 0.275004 3 8 cbr 210 ------- 0 1.0 5.0 44 44
d 0.275004 2 8 cbr 210 ------- 0 1.0 5.0 44 44
d 0.275004 0 8 cbr 210 ------- 0 1.0 5.0 44 44
h 0.27625 1 8 cbr 210 ------- 0 1.0 5.0 47 47
r 0.277504 8 5 cbr 210 ------- 0 1.0 5.0 42 42
+ 0.27875 1 8 cbr 210 ------- 0 1.0 5.0 45 45
- 0.27875 1 8 cbr 210 ------- 0 1.0 5.0 45 45
d 0.278754 7 8 cbr 210 ------- 0 1.0 5.0 45 45
d 0.278754 6 8 cbr 210 ------- 0 1.0 5.0 45 45
d 0.278754 4 8 cbr 210 ------- 0 1.0 5.0 45 45
d 0.278754 3 8 cbr 210 ------- 0 1.0 5.0 45 45
d 0.278754 2 8 cbr 210 ------- 0 1.0 5.0 45 45
d 0.278754 0 8 cbr 210 ------- 0 1.0 5.0 45 45
h 0.28 1 8 cbr 210 ------- 0 1.0 5.0 48 48
r 0.281254 8 5 cbr 210 ------- 0 1.0 5.0 43 43
+ 0.2825 1 8 cbr 210 ------- 0 1.0 5.0 46 46
- 0.2825 1 8 cbr 210 ------- 0 1.0 5.0 46 46
d 0.282504 7 8 cbr 210 ------- 0 1.0 5.0 46 46
d 0.282504 6 8 cbr 210 ------- 0 1.0 5.0 46 46
d 0.282504 4 8 cbr 210 ------- 0 1.0 5.0 46 46
d 0.282504 3 8 cbr 210 ------- 0 1.0 5.0 46 46
d 0.282504 2 8 cbr 210 ------- 0 1.0 5.0 46 46
d 0.282504 0 8 cbr 210 ------- 0 1.0 5.0 46 46
h 0.28375 1 8 cbr 210 ------- 0 1.0 5.0 49 49
r 0.285004 8 5 cbr 210 ------- 0 1.0 5.0 44 44
+ 0.28625 1 8 cbr 210 ------- 0 1.0 5.0 47 47
- 0.28625 1 8 cbr 210 ------- 0 1.0 5.0 47 47
d 0.286254 7 8 cbr 210 ------- 0 1.0 5.0 47 47
d 0.286254 6 8 cbr 210 ------- 0 1.0 5.0 47 47
d 0.286254 4 8 cbr 210 ------- 0 1.0 5.0 47 47
d 0.286254 3 8 cbr 210 ------- 0 1.0 5.0 47 47
d 0.286254 2 8 cbr 210 ------- 0 1.0 5.0 47 47
d 0.286254 0 8 cbr 210 ------- 0 1.0 5.0 47 47
h 0.2875 1 8 cbr 210 ------- 0 1.0 5.0 50 50
r 0.288754 8 5 cbr 210 ------- 0 1.0 5.0 45 45
+ 0.29 1 8 cbr 210 ------- 0 1.0 5.0 48 48
- 0.29 1 8 cbr 210 ------- 0 1.0 5.0 48 48
d 0.290004 7 8 cbr 210 ------- 0 1.0 5.0 48 48
d 0.290004 6 8 cbr 210 ------- 0 1.0 5.0 48 48
d 0.290004 4 8 cbr 210 ------- 0 1.0 5.0 48 48
d 0.290004 3 8 cbr 210 ------- 0 1.0 5.0 48 48
d 0.290004 2 8 cbr 210 ------- 0 1.0 5.0 48 48
d 0.290004 0 8 cbr 210 ------- 0 1.0 5.0 48 48
h 0.29125 1 8 cbr 210 ------- 0 1.0 5.0 51 51
r 0.292504 8 5 cbr 210 ------- 0 1.0 5.0 46 46
+ 0.29375 1 8 cbr 210 ------- 0 1.0 5.0 49 49
- 0.29375 1 8 cbr 210 ------- 0 1.0 5.0 49 49
d 0.293754 7 8 cbr 210 ------- 0 1.0 5.0 49 49
d 0.293754 6 8 cbr 210 ------- 0 1.0 5.0 49 49
d 0.293754 4 8 cbr 210 ------- 0 1.0 5.0 49 49
d 0.293754 3 8 cbr 210 ------- 0 1.0 5.0 49 49
d 0.293754 2 8 cbr 210 ------- 0 1.0 5.0 49 49
d 0.293754 0 8 cbr 210 ------- 0 1.0 5.0 49 49
h 0.295 1 8 cbr 210 ------- 0 1.0 5.0 52 52
r 0.296254 8 5 cbr 210 ------- 0 1.0 5.0 47 47
+ 0.2975 1 8 cbr 210 ------- 0 1.0 5.0 50 50
- 0.2975 1 8 cbr 210 ------- 0 1.0 5.0 50 50
d 0.297504 7 8 cbr 210 ------- 0 1.0 5.0 50 50
d 0.297504 6 8 cbr 210 ------- 0 1.0 5.0 50 50
d 0.297504 4 8 cbr 210 ------- 0 1.0 5.0 50 50
d 0.297504 3 8 cbr 210 ------- 0 1.0 5.0 50 50
d 0.297504 2 8 cbr 210 ------- 0 1.0 5.0 50 50
d 0.297504 0 8 cbr 210 ------- 0 1.0 5.0 50 50
h 0.29875 1 8 cbr 210 ------- 0 1.0 5.0 53 53
r 0.300004 8 5 cbr 210 ------- 0 1.0 5.0 48 48
+ 0.30125 1 8 cbr 210 ------- 0 1.0 5.0 51 51
- 0.30125 1 8 cbr 210 ------- 0 1.0 5.0 51 51
d 0.301254 7 8 cbr 210 ------- 0 1.0 5.0 51 51
d 0.301254 6 8 cbr 210 ------- 0 1.0 5.0 51 51
d 0.301254 4 8 cbr 210 ------- 0 1.0 5.0 51 51
d 0.301254 3 8 cbr 210 ------- 0 1.0 5.0 51 51
d 0.301254 2 8 cbr 210 ------- 0 1.0 5.0 51 51
d 0.301254 0 8 cbr 210 ------- 0 1.0 5.0 51 51
h 0.3025 1 8 cbr 210 ------- 0 1.0 5.0 54 54
r 0.303754 8 5 cbr 210 ------- 0 1.0 5.0 49 49
+ 0.305 1 8 cbr 210 ------- 0 1.0 5.0 52 52
- 0.305 1 8 cbr 210 ------- 0 1.0 5.0 52 52
d 0.305004 7 8 cbr 210 ------- 0 1.0 5.0 52 52
d 0.305004 6 8 cbr 210 ------- 0 1.0 5.0 52 52
d 0.305004 4 8 cbr 210 ------- 0 1.0 5.0 52 52
d 0.305004 3 8 cbr 210 ------- 0 1.0 5.0 52 52
d 0.305004 2 8 cbr 210 ------- 0 1.0 5.0 52 52
d 0.305004 0 8 cbr 210 ------- 0 1.0 5.0 52 52
h 0.30625 1 8 cbr 210 ------- 0 1.0 5.0 55 55
r 0.307504 8 5 cbr 210 ------- 0 1.0 5.0 50 50
+ 0.30875 1 8 cbr 210 ------- 0 1.0 5.0 53 53
- 0.30875 1 8 cbr 210 ------- 0 1.0 5.0 53 53
d 0.308754 7 8 cbr 210 ------- 0 1.0 5.0 53 53
d 0.308754 6 8 cbr 210 ------- 0 1.0 5.0 53 53
d 0.308754 4 8 cbr 210 ------- 0 1.0 5.0 53 53
d 0.308754 3 8 cbr 210 ------- 0 1.0 5.0 53 53
d 0.308754 2 8 cbr 210 ------- 0 1.0 5.0 53 53
d 0.308754 0 8 cbr 210 ------- 0 1.0 5.0 53 53
h 0.31 1 8 cbr 210 ------- 0 1.0 5.0 56 56
r 0.311254 8 5 cbr 210 ------- 0 1.0 5.0 51 51
+ 0.3125 1 8 cbr 210 ------- 0 1.0 5.0 54 54
- 0.3125 1 8 cbr 210 ------- 0 1.0 5.0 54 54
d 0.312504 7 8 cbr 210 ------- 0 1.0 5.0 54 54
d 0.312504 6 8 cbr 210 ------- 0 1.0 5.0 54 54
d 0.312504 4 8 cbr 210 ------- 0 1.0 5.0 54 54
d 0.312504 3 8 cbr 210 ------- 0 1.0 5.0 54 54
d 0.312504 2 8 cbr 210 ------- 0 1.0 5.0 54 54
d 0.312504 0 8 cbr 210 ------- 0 1.0 5.0 54 54
h 0.31375 1 8 cbr 210 ------- 0 1.0 5.0 57 57
r 0.315004 8 5 cbr 210 ------- 0 1.0 5.0 52 52
+ 0.31625 1 8 cbr 210 ------- 0 1.0 5.0 55 55
- 0.31625 1 8 cbr 210 ------- 0 1.0 5.0 55 55
d 0.316254 7 8 cbr 210 ------- 0 1.0 5.0 55 55
d 0.316254 6 8 cbr 210 ------- 0 1.0 5.0 55 55
d 0.316254 4 8 cbr 210 ------- 0 1.0 5.0 55 55
d 0.316254 3 8 cbr 210 ------- 0 1.0 5.0 55 55
d 0.316254 2 8 cbr 210 ------- 0 1.0 5.0 55 55
d 0.316254 0 8 cbr 210 ------- 0 1.0 5.0 55 55
h 0.3175 1 8 cbr 210 ------- 0 1.0 5.0 58 58
r 0.318754 8 5 cbr 210 ------- 0 1.0 5.0 53 53
+ 0.32 1 8 cbr 210 ------- 0 1.0 5.0 56 56
- 0.32 1 8 cbr 210 ------- 0 1.0 5.0 56 56
d 0.320004 7 8 cbr 210 ------- 0 1.0 5.0 56 56
d 0.320004 6 8 cbr 210 ------- 0 1.0 5.0 56 56
d 0.320004 4 8 cbr 210 ------- 0 1.0 5.0 56 56
d 0.320004 3 8 cbr 210 ------- 0 1.0 5.0 56 56
d 0.320004 2 8 cbr 210 ------- 0 1.0 5.0 56 56
d 0.320004 0 8 cbr 210 ------- 0 1.0 5.0 56 56
h 0.32125 1 8 cbr 210 ------- 0 1.0 5.0 59 59
r 0.322504 8 5 cbr 210 ------- 0 1.0 5.0 54 54
+ 0.32375 1 8 cbr 210 ------- 0 1.0 5.0 57 57
- 0.32375 1 8 cbr 210 ------- 0 1.0 5.0 57 57
d 0.323754 7 8 cbr 210 ------- 0 1.0 5.0 57 57
d 0.323754 6 8 cbr 210 ------- 0 1.0 5.0 57 57
d 0.323754 4 8 cbr 210 ------- 0 1.0 5.0 57 57
d 0.323754 3 8 cbr 210 ------- 0 1.0 5.0 57 57
d 0.323754 2 8 cbr 210 ------- 0 1.0 5.0 57 57
d 0.323754 0 8 cbr 210 ------- 0 1.0 5.0 57 57
h 0.325 1 8 cbr 210 ------- 0 1.0 5.0 60 60
r 0.326254 8 5 cbr 210 ------- 0 1.0 5.0 55 55
+ 0.3275 1 8 cbr 210 ------- 0 1.0 5.0 58 58
- 0.3275 1 8 cbr 210 ------- 0 1.0 5.0 58 58
d 0.327504 7 8 cbr 210 ------- 0 1.0 5.0 58 58
d 0.327504 6 8 cbr 210 ------- 0 1.0 5.0 58 58
d 0.327504 4 8 cbr 210 ------- 0 1.0 5.0 58 58
d 0.327504 3 8 cbr 210 ------- 0 1.0 5.0 58 58
d 0.327504 2 8 cbr 210 ------- 0 1.0 5.0 58 58
d 0.327504 0 8 cbr 210 ------- 0 1.0 5.0 58 58
h 0.32875 1 8 cbr 210 ------- 0 1.0 5.0 61 61
r 0.330004 8 5 cbr 210 ------- 0 1.0 5.0 56 56
+ 0.33125 1 8 cbr 210 ------- 0 1.0 5.0 59 59
- 0.33125 1 8 cbr 210 ------- 0 1.0 5.0 59 59
d 0.331254 7 8 cbr 210 ------- 0 1.0 5.0 59 59
d 0.331254 6 8 cbr 210 ------- 0 1.0 5.0 59 59
d 0.331254 4 8 cbr 210 ------- 0 1.0 5.0 59 59
d 0.331254 3 8 cbr 210 ------- 0 1.0 5.0 59 59
d 0.331254 2 8 cbr 210 ------- 0 1.0 5.0 59 59
d 0.331254 0 8 cbr 210 ------- 0 1.0 5.0 59 59
h 0.3325 1 8 cbr 210 ------- 0 1.0 5.0 62 62
r 0.333754 8 5 cbr 210 ------- 0 1.0 5.0 57 57
+ 0.335 1 8 cbr 210 ------- 0 1.0 5.0 60 60
- 0.335 1 8 cbr 210 ------- 0 1.0 5.0 60 60
d 0.335004 7 8 cbr 210 ------- 0 1.0 5.0 60 60
d 0.335004 6 8 cbr 210 ------- 0 1.0 5.0 60 60
d 0.335004 4 8 cbr 210 ------- 0 1.0 5.0 60 60
d 0.335004 3 8 cbr 210 ------- 0 1.0 5.0 60 60
d 0.335004 2 8 cbr 210 ------- 0 1.0 5.0 60 60
d 0.335004 0 8 cbr 210 ------- 0 1.0 5.0 60 60
h 0.33625 1 8 cbr 210 ------- 0 1.0 5.0 63 63
r 0.337504 8 5 cbr 210 ------- 0 1.0 5.0 58 58
+ 0.33875 1 8 cbr 210 ------- 0 1.0 5.0 61 61
- 0.33875 1 8 cbr 210 ------- 0 1.0 5.0 61 61
d 0.338754 7 8 cbr 210 ------- 0 1.0 5.0 61 61
d 0.338754 6 8 cbr 210 ------- 0 1.0 5.0 61 61
d 0.338754 4 8 cbr 210 ------- 0 1.0 5.0 61 61
d 0.338754 3 8 cbr 210 ------- 0 1.0 5.0 61 61
d 0.338754 2 8 cbr 210 ------- 0 1.0 5.0 61 61
d 0.338754 0 8 cbr 210 ------- 0 1.0 5.0 61 61
h 0.34 1 8 cbr 210 ------- 0 1.0 5.0 64 64
r 0.341254 8 5 cbr 210 ------- 0 1.0 5.0 59 59
+ 0.3425 1 8 cbr 210 ------- 0 1.0 5.0 62 62
- 0.3425 1 8 cbr 210 ------- 0 1.0 5.0 62 62
d 0.342504 7 8 cbr 210 ------- 0 1.0 5.0 62 62
d 0.342504 6 8 cbr 210 ------- 0 1.0 5.0 62 62
d 0.342504 4 8 cbr 210 ------- 0 1.0 5.0 62 62
d 0.342504 3 8 cbr 210 ------- 0 1.0 5.0 62 62
d 0.342504 2 8 cbr 210 ------- 0 1.0 5.0 62 62
d 0.342504 0 8 cbr 210 ------- 0 1.0 5.0 62 62
h 0.34375 1 8 cbr 210 ------- 0 1.0 5.0 65 65
r 0.345004 8 5 cbr 210 ------- 0 1.0 5.0 60 60
+ 0.34625 1 8 cbr 210 ------- 0 1.0 5.0 63 63
- 0.34625 1 8 cbr 210 ------- 0 1.0 5.0 63 63
d 0.346254 7 8 cbr 210 ------- 0 1.0 5.0 63 63
d 0.346254 6 8 cbr 210 ------- 0 1.0 5.0 63 63
d 0.346254 4 8 cbr 210 ------- 0 1.0 5.0 63 63
d 0.346254 3 8 cbr 210 ------- 0 1.0 5.0 63 63
d 0.346254 2 8 cbr 210 ------- 0 1.0 5.0 63 63
d 0.346254 0 8 cbr 210 ------- 0 1.0 5.0 63 63
h 0.3475 1 8 cbr 210 ------- 0 1.0 5.0 66 66
r 0.348754 8 5 cbr 210 ------- 0 1.0 5.0 61 61
+ 0.35 1 8 cbr 210 ------- 0 1.0 5.0 64 64
- 0.35 1 8 cbr 210 ------- 0 1.0 5.0 64 64
d 0.350004 7 8 cbr 210 ------- 0 1.0 5.0 64 64
d 0.350004 6 8 cbr 210 ------- 0 1.0 5.0 64 64
d 0.350004 4 8 cbr 210 ------- 0 1.0 5.0 64 64
d 0.350004 3 8 cbr 210 ------- 0 1.0 5.0 64 64
d 0.350004 2 8 cbr 210 ------- 0 1.0 5.0 64 64
d 0.350004 0 8 cbr 210 ------- 0 1.0 5.0 64 64
h 0.35125 1 8 cbr 210 ------- 0 1.0 5.0 67 67