V -t * -v 1.0a5 -a 0
A -t * -n 1 -p 0 -o 0x7fffffff -c 30 -a 1
A -t * -h 1 -m 1073741823 -s 0
n -t * -a 4 -s 4 -S UP -v circle -c black -i black
n -t * -a 0 -s 0 -S UP -v circle -c black -i black
n -t * -a 5 -s 5 -S UP -v circle -c black -i black
n -t * -a 1 -s 1 -S UP -v circle -c black -i black
n -t * -a 6 -s 6 -S UP -v circle -c black -i black
n -t * -a 2 -s 2 -S UP -v circle -c black -i black
n -t * -a 7 -s 7 -S UP -v circle -c black -i black
n -t * -a 3 -s 3 -S UP -v circle -c black -i black
X -t * -n 8 -r 5Mb -D 10ms -o left
L -t * -s 8 -d 0 -o up
L -t * -s 8 -d 1 -o down
L -t * -s 8 -d 2 -o up
L -t * -s 8 -d 3 -o down
L -t * -s 8 -d 4 -o up
L -t * -s 8 -d 5 -o down
L -t * -s 8 -d 6 -o up
L -t * -s 8 -d 7 -o down
h -t 0.1 -s 1 -d 8 -p cbr -e 210 -c 0 -i 0 -a 0 -x {1.0 5.0 0 ------- null}
h -t 0.10375 -s 1 -d 8 -p cbr -e 210 -c 0 -i 1 -a 0 -x {1.0 5.0 1 ------- null}
h -t 0.1075 -s 1 -d 8 -p cbr -e 210 -c 0 -i 2 -a 0 -x {1.0 5.0 2 ------- null}
+ -t 0.11 -s 1 -d 8 -p cbr -e 210 -c 0 -i 0 -a 0 -x {1.0 5.0 0 ------- null}
- -t 0.11 -s 1 -d 8 -p cbr -e 210 -c 0 -i 0 -a 0 -x {1.0 5.0 0 ------- null}
h -t 0.11 -s 1 -d 8 -p cbr -e 210 -c 0 -i 0 -a 0 -x {1.0 5.0 -1 ------- null}
d -t 0.110004 -s 7 -d 8 -p cbr -e 210 -c 0 -i 0 -a 0 -x {1.0 5.0 0 ------- null}
d -t 0.110004 -s 6 -d 8 -p cbr -e 210 -c 0 -i 0 -a 0 -x {1.0 5.0 0 ------- null}
d -t 0.110004 -s 4 -d 8 -p cbr -e 210 -c 0 -i 0 -a 0 -x {1.0 5.0 0 ------- null}
d -t 0.110004 -s 3 -d 8 -p cbr -e 210 -c 0 -i 0 -a 0 -x {1.0 5.0 0 ------- null}
d -t 0.110004 -s 2 -d 8 -p cbr -e 210 -c 0 -i 0 -a 0 -x {1.0 5.0 0 ------- null}
d -t 0.110004 -s 0 -d 8 -p cbr -e 210 -c 0 -i 0 -a 0 -x {1.0 5.0 0 ------- null}
h -t 0.11125 -s 1 -d 8 -p cbr -e 210 -c 0 -i 3 -a 0 -x {1.0 5.0 3 ------- null}
+ -t 0.11375 -s 1 -d 8 -p cbr -e 210 -c 0 -i 1 -a 0 -x {1.0 5.0 1 ------- null}
- -t 0.11375 -s 1 -d 8 -p cbr -e 210 -c 0 -i 1 -a 0 -x {1.0 5.0 1 ------- null}
h -t 0.11375 -s 1 -d 8 -p cbr -e 210 -c 0 -i 1 -a 0 -x {1.0 5.0 -1 ------- null}
d -t 0.113754 -s 7 -d 8 -p cbr -e 210 -c 0 -i 1 -a 0 -x {1.0 5.0 1 ------- null}
d -t 0.113754 -s 6 -d 8 -p cbr -e 210 -c 0 -i 1 -a 0 -x {1.0 5.0 1 ------- null}
d -t 0.113754 -s 4 -d 8 -p cbr -e 210 -c 0 -i 1 -a 0 -x {1.0 5.0 1 ------- null}
d -t 0.113754 -s 3 -d 8 -p cbr -e 210 -c 0 -i 1 -a 0 -x {1.0 5.0 1 ------- null}
d -t 0.113754 -s 2 -d 8 -p cbr -e 210 -c 0 -i 1 -a 0 -x {1.0 5.0 1 ------- null}
d -t 0.113754 -s 0 -d 8 -p cbr -e 210 -c 0 -i 1 -a 0 -x {1.0 5.0 1 ------- null}
h -t 0.115 -s 1 -d 8 -p cbr -e 210 -c 0 -i 4 -a 0 -x {1.0 5.0 4 ------- null}
+ -t 0.1175 -s 1 -d 8 -p cbr -e 210 -c 0 -i 2 -a 0 -x {1.0 5.0 2 ------- null}
- -t 0.1175 -s 1 -d 8 -p cbr -e 210 -c 0 -i 2 -a 0 -x {1.0 5.0 2 ------- null}
h -t 0.1175 -s 1 -d 8 -p cbr -e 210 -c 0 -i 2 -a 0 -x {1.0 5.0 -1 ------- null}
d -t 0.117504 -s 7 -d 8 -p cbr -e 210 -c 0 -i 2 -a 0 -x {1.0 5.0 2 ------- null}
d -t 0.117504 -s 6 -d 8 -p cbr -e 210 -c 0 -i 2 -a 0 -x {1.0 5.0 2 ------- null}
d -t 0.117504 -s 4 -d 8 -p cbr -e 210 -c 0 -i 2 -a 0 -x {1.0 5.0 2 ------- null}
d -t 0.117504 -s 3 -d 8 -p cbr -e 210 -c 0 -i 2 -a 0 -x {1.0 5.0 2 ------- null}
d -t 0.117504 -s 2 -d 8 -p cbr -e 210 -c 0 -i 2 -a 0 -x {1.0 5.0 2 ------- null}
d -t 0.117504 -s 0 -d 8 -p cbr -e 210 -c 0 -i 2 -a 0 -x {1.0 5.0 2 ------- null}
h -t 0.11875 -s 1 -d 8 -p cbr -e 210 -c 0 -i 5 -a 0 -x {1.0 5.0 5 ------- null}
r -t 0.120004 -s 8 -d 5 -p cbr -e 210 -c 0 -i 0 -a 0 -x {1.0 5.0 0 ------- null}
+ -t 0.12125 -s 1 -d 8 -p cbr -e 210 -c 0 -i 3 -a 0 -x {1.0 5.0 3 ------- null}
- -t 0.12125 -s 1 -d 8 -p cbr -e 210 -c 0 -i 3 -a 0 -x {1.0 5.0 3 ------- null}
h -t 0.12125 -s 1 -d 8 -p cbr -e 210 -c 0 -i 3 -a 0 -x {1.0 5.0 -1 ------- null}
d -t 0.121254 -s 7 -d 8 -p cbr -e 210 -c 0 -i 3 -a 0 -x {1.0 5.0 3 ------- null}
d -t 0.121254 -s 6 -d 8 -p cbr -e 210 -c 0 -i 3 -a 0 -x {1.0 5.0 3 ------- null}
d -t 0.121254 -s 4 -d 8 -p cbr -e 210 -c 0 -i 3 -a 0 -x {1.0 5.0 3 ------- null}
d -t 0.121254 -s 3 -d 8 -p cbr -e 210 -c 0 -i 3 -a 0 -x {1.0 5.0 3 ------- null}
d -t 0.121254 -s 2 -d 8 -p cbr -e 210 -c 0 -i 3 -a 0 -x {1.0 5.0 3 ------- null}
d -t 0.121254 -s 0 -d 8 -p cbr -e 210 -c 0 -i 3 -a 0 -x {1.0 5.0 3 ------- null}
h -t 0.1225 -s 1 -d 8 -p cbr -e 210 -c 0 -i 6 -a 0 -x {1.0 5.0 6 ------- null}
r -t 0.123754 -s 8 -d 5 -p cbr -e 210 -c 0 -i 1 -a 0 -x {1.0 5.0 1 ------- null}
+ -t 0.125 -s 1 -d 8 -p cbr -e 210 -c 0 -i 4 -a 0 -x {1.0 5.0 4 ------- null}
- -t 0.125 -s 1 -d 8 -p cbr -e 210 -c 0 -i 4 -a 0 -x {1.0 5.0 4 ------- null}
h -t 0.125 -s 1 -d 8 -p cbr -e 210 -c 0 -i 4 -a 0 -x {1.0 5.0 -1 ------- null}
d -t 0.125004 -s 7 -d 8 -p cbr -e 210 -c 0 -i 4 -a 0 -x {1.0 5.0 4 ------- null}
d -t 0.125004 -s 6 -d 8 -p cbr -e 210 -c 0 -i 4 -a 0 -x {1.0 5.0 4 ------- null}
d -t 0.125004 -s 4 -d 8 -p cbr -e 210 -c 0 -i 4 -a 0 -x {1.0 5.0 4 ------- null}
d -t 0.125004 -s 3 -d 8 -p cbr -e 210 -c 0 -i 4 -a 0 -x {1.0 5.0 4 ------- null}
d -t 0.125004 -s 2 -d 8 -p cbr -e 210 -c 0 -i 4 -a 0 -x {1.0 5.0 4 ------- null}
d -t 0.125004 -s 0 -d 8 -p cbr -e 210 -c 0 -i 4 -a 0 -x {1.0 5.0 4 ------- null}
h -t 0.12625 -s 1 -d 8 -p cbr -e 210 -c 0 -i 7 -a 0 -x {1.0 5.0 7 ------- null}
r -t 0.127504 -s 8 -d 5 -p cbr -e 210 -c 0 -i 2 -a 0 -x {1.0 5.0 2 ------- null}
+ -t 0.12875 -s 1 -d 8 -p cbr -e 210 -c 0 -i 5 -a 0 -x {1.0 5.0 5 ------- null}
- -t 0.12875 -s 1 -d 8 -p cbr -e 210 -c 0 -i 5 -a 0 -x {1.0 5.0 5 ------- null}
h -t 0.12875 -s 1 -d 8 -p cbr -e 210 -c 0 -i 5 -a 0 -x {1.0 5.0 -1 ------- null}
d -t 0.128754 -s 7 -d 8 -p cbr -e 210 -c 0 -i 5 -a 0 -x {1.0 5.0 5 ------- null}
d -t 0.128754 -s 6 -d 8 -p cbr -e 210 -c 0 -i 5 -a 0 -x {1.0 5.0 5 ------- null}
d -t 0.128754 -s 4 -d 8 -p cbr -e 210 -c 0 -i 5 -a 0 -x {1.0 5.0 5 ------- null}
d -t 0.128754 -s 3 -d 8 -p cbr -e 210 -c 0 -i 5 -a 0 -x {1.0 5.0 5 ------- null}
d -t 0.128754 -s 2 -d 8 -p cbr -e 210 -c 0 -i 5 -a 0 -x {1.0 5.0 5 ------- null}
d -t 0.128754 -s 0 -d 8 -p cbr -e 210 -c 0 -i 5 -a 0 -x {1.0 5.0 5 ------- null}
h -t 0.13 -s 1 -d 8 -p cbr -e 210 -c 0 -i 8 -a 0 -x {1.0 5.0 8 ------- null}
r -t 0.131254 -s 8 -d 5 -p cbr -e 210 -c 0 -i 3 -a 0 -x {1.0 5.0 3 ------- null}
+ -t 0.1325 -s 1 -d 8 -p cbr -e 210 -c 0 -i 6 -a 0 -x {1.0 5.0 6 ------- null}
- -t 0.1325 -s 1 -d 8 -p cbr -e 210 -c 0 -i 6 -a 0 -x {1.0 5.0 6 ------- null}
h -t 0.1325 -s 1 -d 8 -p cbr -e 210 -c 0 -i 6 -a 0 -x {1.0 5.0 -1 ------- null}
d -t 0.132504 -s 7 -d 8 -p cbr -e 210 -c 0 -i 6 -a 0 -x {1.0 5.0 6 ------- null}
d -t 0.132504 -s 6 -d 8 -p cbr -e 210 -c 0 -i 6 -a 0 -x {1.0 5.0 6 ------- null}
d -t 0.132504 -s 4 -d 8 -p cbr -e 210 -c 0 -i 6 -a 0 -x {1.0 5.0 6 ------- null}
d -t 0.132504 -s 3 -d 8 -p cbr -e 210 -c 0 -i 6 -a 0 -x {1.0 5.0 6 ------- null}
d -t 0.132504 -s 2 -d 8 -p cbr -e 210 -c 0 -i 6 -a 0 -x {1.0 5.0 6 ------- null}
d -t 0.132504 -s 0 -d 8 -p cbr -e 210 -c 0 -i 6 -a 0 -x {1.0 5.0 6 ------- null}
h -t 0.13375 -s 1 -d 8 -p cbr -e 210 -c 0 -i 9 -a 0 -x {1.0 5.0 9 ------- null}
r -t 0.135004 -s 8 -d 5 -p cbr -e 210 -c 0 -i 4 -a 0 -x {1.0 5.0 4 ------- null}
+ -t 0.13625 -s 1 -d 8 -p cbr -e 210 -c 0 -i 7 -a 0 -x {1.0 5.0 7 ------- null}
- -t 0.13625 -s 1 -d 8 -p cbr -e 210 -c 0 -i 7 -a 0 -x {1.0 5.0 7 ------- null}
h -t 0.13625 -s 1 -d 8 -p cbr -e 210 -c 0 -i 7 -a 0 -x {1.0 5.0 -1 ------- null}
d -t 0.136254 -s 7 -d 8 -p cbr -e 210 -c 0 -i 7 -a 0 -x {1.0 5.0 7 ------- null}
d -t 0.136254 -s 6 -d 8 -p cbr -e 210 -c 0 -i 7 -a 0 -x {1.0 5.0 7 ------- null}
d -t 0.136254 -s 4 -d 8 -p cbr -e 210 -c 0 -i 7 -a 0 -x {1.0 5.0 7 ------- null}
d -t 0.136254 -s 3 -d 8 -p cbr -e 210 -c 0 -i 7 -a 0 -x {1.0 5.0 7 ------- null}
d -t 0.136254 -s 2 -d 8 -p cbr -e 210 -c 0 -i 7 -a 0 -x {1.0 5.0 7 ------- null}
d -t 0.136254 -s 0 -d 8 -p cbr -e 210 -c 0 -i 7 -a 0 -x {1.0 5.0 7 ------- null}
h -t 0.1375 -s 1 -d 8 -p cbr -e 210 -c 0 -i 10 -a 0 -x {1.0 5.0 10 ------- null}
r -t 0.138754 -s 8 -d 5 -p cbr -e 210 -c 0 -i 5 -a 0 -x {1.0 5.0 5 ------- null}
+ -t 0.14 -s 1 -d 8 -p cbr -e 210 -c 0 -i 8 -a 0 -x {1.0 5.0 8 ------- null}
- -t 0.14 -s 1 -d 8 -p cbr -e 210 -c 0 -i 8 -a 0 -x {1.0 5.0 8 ------- null}
h -t 0.14 -s 1 -d 8 -p cbr -e 210 -c 0 -i 8 -a 0 -x {1.0 5.0 -1 ------- null}
d -t 0.140004 -s 7 -d 8 -p cbr -e 210 -c 0 -i 8 -a 0 -x {1.0 5.0 8 ------- null}
d -t 0.140004 -s 6 -d 8 -p cbr -e 210 -c 0 -i 8 -a 0 -x {1.0 5.0 8 ------- null}
d -t 0.140004 -s 4 -d 8 -p cbr -e 210 -c 0 -i 8 -a 0 -x {1.0 5.0 8 ------- null}
d -t 0.140004 -s 3 -d 8 -p cbr -e 210 -c 0 -i 8 -a 0 -x {1.0 5.0 8 ------- null}
d -t 0.140004 -s 2 -d 8 -p cbr -e 210 -c 0 -i 8 -a 0 -x {1.0 5.0 8 ------- null}
d -t 0.140004 -s 0 -d 8 -p cbr -e 210 -c 0 -i 8 -a 0 -x {1.0 5.0 8 ------- null}
h -t 0.14125 -s 1 -d 8 -p cbr -e 210 -c 0 -i 11 -a 0 -x {1.0 5.0 11 ------- null}
r -t 0.142504 -s 8 -d 5 -p cbr -e 210 -c 0 -i 6 -a 0 -x {1.0 5.0 6 ------- null}
+ -t 0.14375 -s 1 -d 8 -p cbr -e 210 -c 0 -i 9 -a 0 -x {1.0 5.0 9 ------- null}
- -t 0.14375 -s 1 -d 8 -p cbr -e 210 -c 0 -i 9 -a 0 -x {1.0 5.0 9 ------- null}
h -t 0.14375 -s 1 -d 8 -p cbr -e 210 -c 0 -i 9 -a 0 -x {1.0 5.0 -1 ------- null}
d -t 0.143754 -s 7 -d 8 -p cbr -e 210 -c 0 -i 9 -a 0 -x {1.0 5.0 9 ------- null}
d -t 0.143754 -s 6 -d 8 -p cbr -e 210 -c 0 -i 9 -a 0 -x {1.0 5.0 9 ------- null}
d -t 0.143754 -s 4 -d 8 -p cbr -e 210 -c 0 -i 9 -a 0 -x {1.0 5.0 9 ------- null}
d -t 0.143754 -s 3 -d 8 -p cbr -e 210 -c 0 -i 9 -a 0 -x {1.0 5.0 9 ------- null}
d -t 0.143754 -s 2 -d 8 -p cbr -e 210 -c 0 -i 9 -a 0 -x {1.0 5.0 9 ------- null}
d -t 0.143754 -s 0 -d 8 -p cbr -e 210 -c 0 -i 9 -a 0 -x {1.0 5.0 9 ------- null}
h -t 0.145 -s 1 -d 8 -p cbr -e 210 -c 0 -i 12 -a 0 -x {1.0 5.0 12 ------- null}
r -t 0.146254 -s 8 -d 5 -p cbr -e 210 -c 0 -i 7 -a 0 -x {1.0 5.0 7 ------- null}
+ -t 0.1475 -s 1 -d 8 -p cbr -e 210 -c 0 -i 10 -a 0 -x {1.0 5.0 10 ------- null}
- -t 0.1475 -s 1 -d 8 -p cbr -e 210 -c 0 -i 10 -a 0 -x {1.0 5.0 10 ------- null}
h -t 0.1475 -s 1 -d 8 -p cbr -e 210 -c 0 -i 10 -a 0 -x {1.0 5.0 -1 ------- null}
d -t 0.147504 -s 7 -d 8 -p cbr -e 210 -c 0 -i 10 -a 0 -x {1.0 5.0 10 ------- null}
d -t 0.147504 -s 6 -d 8 -p cbr -e 210 -c 0 -i 10 -a 0 -x {1.0 5.0 10 ------- null}
d -t 0.147504 -s 4 -d 8 -p cbr -e 210 -c 0 -i 10 -a 0 -x {1.0 5.0 10 ------- null}
d -t 0.147504 -s 3 -d 8 -p cbr -e 210 -c 0 -i 10 -a 0 -x {1.0 5.0 10 ------- null}
d -t 0.147504 -s 2 -d 8 -p cbr -e 210 -c 0 -i 10 -a 0 -x {1.0 5.0 10 ------- null}
d -t 0.147504 -s 0 -d 8 -p cbr -e 210 -c 0 -i 10 -a 0 -x {1.0 5.0 10 ------- null}
h -t 0.14875 -s 1 -d 8 -p cbr -e 210 -c 0 -i 13 -a 0 -x {1.0 5.0 13 ------- null}
r -t 0.150004 -s 8 -d 5 -p cbr -e 210 -c 0 -i 8 -a 0 -x {1.0 5.0 8 ------- null}
+ -t 0.15125 -s 1 -d 8 -p cbr -e 210 -c 0 -i 11 -a 0 -x {1.0 5.0 11 ------- null}
- -t 0.15125 -s 1 -d 8 -p cbr -e 210 -c 0 -i 11 -a 0 -x {1.0 5.0 11 ------- null}
h -t 0.15125 -s 1 -d 8 -p cbr -e 210 -c 0 -i 11 -a 0 -x {1.0 5.0 -1 ------- null}
d -t 0.151254 -s 7 -d 8 -p cbr -e 210 -c 0 -i 11 -a 0 -x {1.0 5.0 11 ------- null}
d -t 0.151254 -s 6 -d 8 -p cbr -e 210 -c 0 -i 11 -a 0 -x {1.0 5.0 11 ------- null}
d -t 0.151254 -s 4 -d 8 -p cbr -e 210 -c 0 -i 11 -a 0 -x {1.0 5.0 11 ------- null}
d -t 0.151254 -s 3 -d 8 -p cbr -e 210 -c 0 -i 11 -a 0 -x {1.0 5.0 11 ------- null}
d -t 0.151254 -s 2 -d 8 -p cbr -e 210 -c 0 -i 11 -a 0 -x {1.0 5.0 11 ------- null}
d -t 0.151254 -s 0 -d 8 -p cbr -e 210 -c 0 -i 11 -a 0 -x {1.0 5.0 11 ------- null}
h -t 0.1525 -s 1 -d 8 -p cbr -e 210 -c 0 -i 14 -a 0 -x {1.0 5.0 14 ------- null}
r -t 0.153754 -s 8 -d 5 -p cbr -e 210 -c 0 -i 9 -a 0 -x {1.0 5.0 9 ------- null}
+ -t 0.155 -s 1 -d 8 -p cbr -e 210 -c 0 -i 12 -a 0 -x {1.0 5.0 12 ------- null}
- -t 0.155 -s 1 -d 8 -p cbr -e 210 -c 0 -i 12 -a 0 -x {1.0 5.0 12 ------- null}
h -t 0.155 -s 1 -d 8 -p cbr -e 210 -c 0 -i 12 -a 0 -x {1.0 5.0 -1 ------- null}
d -t 0.155004 -s 7 -d 8 -p cbr -e 210 -c 0 -i 12 -a 0 -x {1.0 5.0 12 ------- null}
d -t 0.155004 -s 6 -d 8 -p cbr -e 210 -c 0 -i 12 -a 0 -x {1.0 5.0 12 ------- null}
d -t 0.155004 -s 4 -d 8 -p cbr -e 210 -c 0 -i 12 -a 0 -x {1.0 5.0 12 ------- null}
d -t 0.155004 -s 3 -d 8 -p cbr -e 210 -c 0 -i 12 -a 0 -x {1.0 5.0 12 ------- null}
d -t 0.155004 -s 2 -d 8 -p cbr -e 210 -c 0 -i 12 -a 0 -x {1.0 5.0 12 ------- null}
d -t 0.155004 -s 0 -d 8 -p cbr -e 210 -c 0 -i 12 -a 0 -x {1.0 5.0 12 ------- null}
h -t 0.15625 -s 1 -d 8 -p cbr -e 210 -c 0 -i 15 -a 0 -x {1.0 5.0 15 ------- null}
r -t 0.157504 -s 8 -d 5 -p cbr -e 210 -c 0 -i 10 -a 0 -x {1.0 5.0 10 ------- null}
+ -t 0.15875 -s 1 -d 8 -p cbr -e 210 -c 0 -i 13 -a 0 -x {1.0 5.0 13 ------- null}
- -t 0.15875 -s 1 -d 8 -p cbr -e 210 -c 0 -i 13 -a 0 -x {1.0 5.0 13 ------- null}
h -t 0.15875 -s 1 -d 8 -p cbr -e 210 -c 0 -i 13 -a 0 -x {1.0 5.0 -1 ------- null}
d -t 0.158754 -s 7 -d 8 -p cbr -e 210 -c 0 -i 13 -a 0 -x {1.0 5.0 13 ------- null}
d -t 0.158754 -s 6 -d 8 -p cbr -e 210 -c 0 -i 13 -a 0 -x {1.0 5.0 13 ------- null}
d -t 0.158754 -s 4 -d 8 -p cbr -e 210 -c 0 -i 13 -a 0 -x {1.0 5.0 13 ------- null}
d -t 0.158754 -s 3 -d 8 -p cbr -e 210 -c 0 -i 13 -a 0 -x {1.0 5.0 13 ------- null}
d -t 0.158754 -s 2 -d 8 -p cbr -e 210 -c 0 -i 13 -a 0 -x {1.0 5.0 13 ------- null}
d -t 0.158754 -s 0 -d 8 -p cbr -e 210 -c 0 -i 13 -a 0 -x {1.0 5.0 13 ------- null}
h -t 0.16 -s 1 -d 8 -p cbr -e 210 -c 0 -i 16 -a 0 -x {1.0 5.0 16 ------- null}
r -t 0.161254 -s 8 -d 5 -p cbr -e 210 -c 0 -i 11 -a 0 -x {1.0 5.0 11 ------- null}
+ -t 0.1625 -s 1 -d 8 -p cbr -e 210 -c 0 -i 14 -a 0 -x {1.0 5.0 14 ------- null}
- -t 0.1625 -s 1 -d 8 -p cbr -e 210 -c 0 -i 14 -a 0 -x {1.0 5.0 14 ------- null}
h -t 0.1625 -s 1 -d 8 -p cbr -e 210 -c 0 -i 14 -a 0 -x {1.0 5.0 -1 ------- null}
d -t 0.162504 -s 7 -d 8 -p cbr -e 210 -c 0 -i 14 -a 0 -x {1.0 5.0 14 ------- null}
d -t 0.162504 -s 6 -d 8 -p cbr -e 210 -c 0 -i 14 -a 0 -x {1.0 5.0 14 ------- null}
d -t 0.162504 -s 4 -d 8 -p cbr -e 210 -c 0 -i 14 -a 0 -x {1.0 5.0 14 ------- null}
d -t 0.162504 -s 3 -d 8 -p cbr -e 210 -c 0 -i 14 -a 0 -x {1.0 5.0 14 ------- null}
d -t 0.162504 -s 2 -d 8 -p cbr -e 210 -c 0 -i 14 -a 0 -x {1.0 5.0 14 ------- null}
d -t 0.162504 -s 0 -d 8 -p cbr -e 210 -c 0 -i 14 -a 0 -x {1.0 5.0 14 ------- null}
h -t 0.16375 -s 1 -d 8 -p cbr -e 210 -c 0 -i 17 -a 0 -x {1.0 5.0 17 ------- null}
r -t 0.165004 -s 8 -d 5 -p cbr -e 210 -c 0 -i 12 -a 0 -x {1.0 5.0 12 ------- null}
+ -t 0.16625 -s 1 -d 8 -p cbr -e 210 -c 0 -i 15 -a 0 -x {1.0 5.0 15 ------- null}
- -t 0.16625 -s 1 -d 8 -p cbr -e 210 -c 0 -i 15 -a 0 -x {1.0 5.0 15 ------- null}
h -t 0.16625 -s 1 -d 8 -p cbr -e 210 -c 0 -i 15 -a 0 -x {1.0 5.0 -1 ------- null}
d -t 0.166254 -s 7 -d 8 -p cbr -e 210 -c 0 -i 15 -a 0 -x {1.0 5.0 15 ------- null}
d -t 0.166254 -s 6 -d 8 -p cbr -e 210 -c 0 -i 15 -a 0 -x {1.0 5.0 15 ------- null}
d -t 0.166254 -s 4 -d 8 -p cbr -e 210 -c 0 -i 15 -a 0 -x {1.0 5.0 15 ------- null}
d -t 0.166254 -s 3 -d 8 -p cbr -e 210 -c 0 -i 15 -a 0 -x {1.0 5.0 15 ------- null}
d -t 0.166254 -s 2 -d 8 -p cbr -e 210 -c 0 -i 15 -a 0 -x {1.0 5.0 15 ------- null}
d -t 0.166254 -s 0 -d 8 -p cbr -e 210 -c 0 -i 15 -a 0 -x {1.0 5.0 15 ------- null}
h -t 0.1675 -s 1 -d 8 -p cbr -e 210 -c 0 -i 18 -a 0 -x {1.0 5.0 18 ------- null}
r -t 0.168754 -s 8 -d 5 -p cbr -e 210 -c 0 -i 13 -a 0 -x {1.0 5.0 13 ------- null}
+ -t 0.17 -s 1 -d 8 -p cbr -e 210 -c 0 -i 16 -a 0 -x {1.0 5.0 16 ------- null}
- -t 0.17 -s 1 -d 8 -p cbr -e 210 -c 0 -i 16 -a 0 -x {1.0 5.0 16 ------- null}
h -t 0.17 -s 1 -d 8 -p cbr -e 210 -c 0 -i 16 -a 0 -x {1.0 5.0 -1 ------- null}
d -t 0.170004 -s 7 -d 8 -p cbr -e 210 -c 0 -i 16 -a 0 -x {1.0 5.0 16 ------- null}
d -t 0.170004 -s 6 -d 8 -p cbr -e 210 -c 0 -i 16 -a 0 -x {1.0 5.0 16 ------- null}
d -t 0.170004 -s 4 -d 8 -p cbr -e 210 -c 0 -i 16 -a 0 -x {1.0 5.0 16 ------- null}
d -t 0.170004 -s 3 -d 8 -p cbr -e 210 -c 0 -i 16 -a 0 -x {1.0 5.0 16 ------- null}
d -t 0.170004 -s 2 -d 8 -p cbr -e 210 -c 0 -i 16 -a 0 -x {1.0 5.0 16 ------- null}
d -t 0.170004 -s 0 -d 8 -p cbr -e 210 -c 0 -i 16 -a 0 -x {1.0 5.0 16 ------- null}
h -t 0.17125 -s 1 -d 8 -p cbr -e 210 -c 0 -i 19 -a 0 -x {1.0 5.0 19 ------- null}
r -t 0.172504 -s 8 -d 5 -p cbr -e 210 -c 0 -i 14 -a 0 -x {1.0 5.0 14 ------- null}
+ -t 0.17375 -s 1 -d 8 -p cbr -e 210 -c 0 -i 17 -a 0 -x {1.0 5.0 17 ------- null}
- -t 0.17375 -s 1 -d 8 -p cbr -e 210 -c 0 -i 17 -a 0 -x {1.0 5.0 17 ------- null}
h -t 0.17375 -s 1 -d 8 -p cbr -e 210 -c 0 -i 17 -a 0 -x {1.0 5.0 -1 ------- null}
d -t 0.173754 -s 7 -d 8 -p cbr -e 210 -c 0 -i 17 -a 0 -x {1.0 5.0 17 ------- null}
d -t 0.173754 -s 6 -d 8 -p cbr -e 210 -c 0 -i 17 -a 0 -x {1.0 5.0 17 ------- null}
d -t 0.173754 -s 4 -d 8 -p cbr -e 210 -c 0 -i 17 -a 0 -x {1.0 5.0 17 ------- null}
d -t 0.173754 -s 3 -d 8 -p cbr -e 210 -c 0 -i 17 -a 0 -x {1.0 5.0 17 ------- null}
d -t 0.173754 -s 2 -d 8 -p cbr -e 210 -c 0 -i 17 -a 0 -x {1.0 5.0 17 ------- null}
d -t 0.173754 -s 0 -d 8 -p cbr -e 210 -c 0 -i 17 -a 0 -x {1.0 5.0 17 ------- null}
h -t 0.175 -s 1 -d 8 -p cbr -e 210 -c 0 -i 20 -a 0 -x {1.0 5.0 20 ------- null}
r -t 0.176254 -s 8 -d 5 -p cbr -e 210 -c 0 -i 15 -a 0 -x {1.0 5.0 15 ------- null}
+ -t 0.1775 -s 1 -d 8 -p cbr -e 210 -c 0 -i 18 -a 0 -x {1.0 5.0 18 ------- null}
- -t 0.1775 -s 1 -d 8 -p cbr -e 210 -c 0 -i 18 -a 0 -x {1.0 5.0 18 ------- null}
h -t 0.1775 -s 1 -d 8 -p cbr -e 210 -c 0 -i 18 -a 0 -x {1.0 5.0 -1 ------- null}
d -t 0.177504 -s 7 -d 8 -p cbr -e 210 -c 0 -i 18 -a 0 -x {1.0 5.0 18 ------- null}
d -t 0.177504 -s 6 -d 8 -p cbr -e 210 -c 0 -i 18 -a 0 -x {1.0 5.0 18 ------- null}
d -t 0.177504 -s 4 -d 8 -p cbr -e 210 -c 0 -i 18 -a 0 -x {1.0 5.0 18 ------- null}
d -t 0.177504 -s 3 -d 8 -p cbr -e 210 -c 0 -i 18 -a 0 -x {1.0 5.0 18 ------- null}
d -t 0.177504 -s 2 -d 8 -p cbr -e 210 -c 0 -i 18 -a 0 -x {1.0 5.0 18 ------- null}
d -t 0.177504 -s 0 -d 8 -p cbr -e 210 -c 0 -i 18 -a 0 -x {1.0 5.0 18 ------- null}
h -t 0.17875 -s 1 -d 8 -p cbr -e 210 -c 0 -i 21 -a 0 -x {1.0 5.0 21 ------- null}
r -t 0.180004 -s 8 -d 5 -p cbr -e 210 -c 0 -i 16 -a 0 -x {1.0 5.0 16 ------- null}
+ -t 0.18125 -s 1 -d 8 -p cbr -e 210 -c 0 -i 19 -a 0 -x {1.0 5.0 19 ------- null}
- -t 0.18125 -s 1 -d 8 -p cbr -e 210 -c 0 -i 19 -a 0 -x {1.0 5.0 19 ------- null}
h -t 0.18125 -s 1 -d 8 -p cbr -e 210 -c 0 -i 19 -a 0 -x {1.0 5.0 -1 ------- null}
d -t 0.181254 -s 7 -d 8 -p cbr -e 210 -c 0 -i 19 -a 0 -x {1.0 5.0 19 ------- null}
d -t 0.181254 -s 6 -d 8 -p cbr -e 210 -c 0 -i 19 -a 0 -x {1.0 5.0 19 ------- null}
d -t 0.181254 -s 4 -d 8 -p cbr -e 210 -c 0 -i 19 -a 0 -x {1.0 5.0 19 ------- null}
d -t 0.181254 -s 3 -d 8 -p cbr -e 210 -c 0 -i 19 -a 0 -x {1.0 5.0 19 ------- null}
d -t 0.181254 -s 2 -d 8 -p cbr -e 210 -c 0 -i 19 -a 0 -x {1.0 5.0 19 ------- null}
d -t 0.181254 -s 0 -d 8 -p cbr -e 210 -c 0 -i 19 -a 0 -x {1.0 5.0 19 ------- null}
h -t 0.1825 -s 1 -d 8 -p cbr -e 210 -c 0 -i 22 -a 0 -x {1.0 5.0 22 ------- null}
r -t 0.183754 -s 8 -d 5 -p cbr -e 210 -c 0 -i 17 -a 0 -x {1.0 5.0 17 ------- null}
+ -t 0.185 -s 1 -d 8 -p cbr -e 210 -c 0 -i 20 -a 0 -x {1.0 5.0 20 ------- null}
- -t 0.185 -s 1 -d 8 -p cbr -e 210 -c 0 -i 20 -a 0 -x {1.0 5.0 20 ------- null}
h -t 0.185 -s 1 -d 8 -p cbr -e 210 -c 0 -i 20 -a 0 -x {1.0 5.0 -1 ------- null}
d -t 0.185004 -s 7 -d 8 -p cbr -e 210 -c 0 -i 20 -a 0 -x {1.0 5.0 20 ------- null}
d -t 0.185004 -s 6 -d 8 -p cbr -e 210 -c 0 -i 20 -a 0 -x {1.0 5.0 20 ------- null}
d -t 0.185004 -s 4 -d 8 -p cbr -e 210 -c 0 -i 20 -a 0 -x {1.0 5.0 20 ------- null}
d -t 0.185004 -s 3 -d 8 -p cbr -e 210 -c 0 -i 20 -a 0 -x {1.0 5.0 20 ------- null}
d -t 0.185004 -s 2 -d 8 -p cbr -e 210 -c 0 -i 20 -a 0 -x {1.0 5.0 20 ------- null}
d -t 0.185004 -s 0 -d 8 -p cbr -e 210 -c 0 -i 20 -a 0 -x {1.0 5.0 20 ------- null}
h -t 0.18625 -s 1 -d 8 -p cbr -e 210 -c 0 -i 23 -a 0 -x {1.0 5.0 23 ------- null}
r -t 0.187504 -s 8 -d 5 -p cbr -e 210 -c 0 -i 18 -a 0 -x {1.0 5.0 18 ------- null}
+ -t 0.18875 -s 1 -d 8 -p cbr -e 210 -c 0 -i 21 -a 0 -x {1.0 5.0 21 ------- null}
- -t 0.18875 -s 1 -d 8 -p cbr -e 210 -c 0 -i 21 -a 0 -x {1.0 5.0 21 ------- null}
h -t 0.18875 -s 1 -d 8 -p cbr -e 210 -c 0 -i 21 -a 0 -x {1.0 5.0 -1 ------- null}
d -t 0.188754 -s 7 -d 8 -p cbr -e 210 -c 0 -i 21 -a 0 -x {1.0 5.0 21 ------- null}
d -t 0.188754 -s 6 -d 8 -p cbr -e 210 -c 0 -i 21 -a 0 -x {1.0 5.0 21 ------- null}
d -t 0.188754 -s 4 -d 8 -p cbr -e 210 -c 0 -i 21 -a 0 -x {1.0 5.0 21 ------- null}
d -t 0.188754 -s 3 -d 8 -p cbr -e 210 -c 0 -i 21 -a 0 -x {1.0 5.0 21 ------- null}
d -t 0.188754 -s 2 -d 8 -p cbr -e 210 -c 0 -i 21 -a 0 -x {1.0 5.0 21 ------- null}
d -t 0.188754 -s 0 -d 8 -p cbr -e 210 -c 0 -i 21 -a 0 -x {1.0 5.0 21 ------- null}
h -t 0.19 -s 1 -d 8 -p cbr -e 210 -c 0 -i 24 -a 0 -x {1.0 5.0 24 ------- null}
r -t 0.191254 -s 8 -d 5 -p cbr -e 210 -c 0 -i 19 -a 0 -x {1.0 5.0 19 ------- null}
+ -t 0.1925 -s 1 -d 8 -p cbr -e 210 -c 0 -i 22 -a 0 -x {1.0 5.0 22 ------- null}
- -t 0.1925 -s 1 -d 8 -p cbr -e 210 -c 0 -i 22 -a 0 -x {1.0 5.0 22 ------- null}
h -t 0.1925 -s 1 -d 8 -p cbr -e 210 -c 0 -i 22 -a 0 -x {1.0 5.0 -1 ------- null}
d -t 0.192504 -s 7 -d 8 -p cbr -e 210 -c 0 -i 22 -a 0 -x {1.0 5.0 22 ------- null}
d -t 0.192504 -s 6 -d 8 -p cbr -e 210 -c 0 -i 22 -a 0 -x {1.0 5.0 22 ------- null}
d -t 0.192504 -s 4 -d 8 -p cbr -e 210 -c 0 -i 22 -a 0 -x {1.0 5.0 22 ------- null}
d -t 0.192504 -s 3 -d 8 -p cbr -e 210 -c 0 -i 22 -a 0 -x {1.0 5.0 22 ------- null}
d -t 0.192504 -s 2 -d 8 -p cbr -e 210 -c 0 -i 22 -a 0 -x {1.0 5.0 22 ------- null}
d -t 0.192504 -s 0 -d 8 -p cbr -e 210 -c 0 -i 22 -a 0 -x {1.0 5.0 22 ------- null}
h -t 0.19375 -s 1 -d 8 -p cbr -e 210 -c 0 -i 25 -a 0 -x {1.0 5.0 25 ------- null}
r -t 0.195004 -s 8 -d 5 -p cbr -e 210 -c 0 -i 20 -a 0 -x {1.0 5.0 20 ------- null}
+ -t 0.19625 -s 1 -d 8 -p cbr -e 210 -c 0 -i 23 -a 0 -x {1.0 5.0 23 ------- null}
- -t 0.19625 -s 1 -d 8 -p cbr -e 210 -c 0 -i 23 -a 0 -x {1.0 5.0 23 ------- null}
h -t 0.19625 -s 1 -d 8 -p cbr -e 210 -c 0 -i 23 -a 0 -x {1.0 5.0 -1 ------- null}
d -t 0.196254 -s 7 -d 8 -p cbr -e 210 -c 0 -i 23 -a 0 -x {1.0 5.0 23 ------- null}
d -t 0.196254 -s 6 -d 8 -p cbr -e 210 -c 0 -i 23 -a 0 -x {1.0 5.0 23 ------- null}
d -t 0.196254 -s 4 -d 8 -p cbr -e 210 -c 0 -i 23 -a 0 -x {1.0 5.0 23 ------- null}
d -t 0.196254 -s 3 -d 8 -p cbr -e 210 -c 0 -i 23 -a 0 -x {1.0 5.0 23 ------- null}
d -t 0.196254 -s 2 -d 8 -p cbr -e 210 -c 0 -i 23 -a 0 -x {1.0 5.0 23 ------- null}
d -t 0.196254 -s 0 -d 8 -p cbr -e 210 -c 0 -i 23 -a 0 -x {1.0 5.0 23 ------- null}
h -t 0.1975 -s 1 -d 8 -p cbr -e 210 -c 0 -i 26 -a 0 -x {1.0 5.0 26 ------- null}
r -t 0.198754 -s 8 -d 5 -p cbr -e 210 -c 0 -i 21 -a 0 -x {1.0 5.0 21 ------- null}
+ -t 0.2 -s 1 -d 8 -p cbr -e 210 -c 0 -i 24 -a 0 -x {1.0 5.0 24 ------- null}
- -t 0.2 -s 1 -d 8 -p cbr -e 210 -c 0 -i 24 -a 0 -x {1.0 5.0 24 ------- null}
h -t 0.2 -s 1 -d 8 -p cbr -e 210 -c 0 -i 24 -a 0 -x {1.0 5.0 -1 ------- null}
d -t 0.200004 -s 7 -d 8 -p cbr -e 210 -c 0 -i 24 -a 0 -x {1.0 5.0 24 ------- null}
d -t 0.200004 -s 6 -d 8 -p cbr -e 210 -c 0 -i 24 -a 0 -x {1.0 5.0 24 ------- null}
d -t 0.200004 -s 4 -d 8 -p cbr -e 210 -c 0 -i 24 -a 0 -x {1.0 5.0 24 ------- null}
d -t 0.200004 -s 3 -d 8 -p cbr -e 210 -c 0 -i 24 -a 0 -x {1.0 5.0 24 ------- null}
d -t 0.200004 -s 2 -d 8 -p cbr -e 210 -c 0 -i 24 -a 0 -x {1.0 5.0 24 ------- null}
d -t 0.200004 -s 0 -d 8 -p cbr -e 210 -c 0 -i 24 -a 0 -x {1.0 5.0 24 ------- null}
h -t 0.20125 -s 1 -d 8 -p cbr -e 210 -c 0 -i 27 -a 0 -x {1.0 5.0 27 ------- null}
r -t 0.202504 -s 8 -d 5 -p cbr -e 210 -c 0 -i 22 -a 0 -x {1.0 5.0 22 ------- null}
+ -t 0.20375 -s 1 -d 8 -p cbr -e 210 -c 0 -i 25 -a 0 -x {1.0 5.0 25 ------- null}
- -t 0.20375 -s 1 -d 8 -p cbr -e 210 -c 0 -i 25 -a 0 -x {1.0 5.0 25 ------- null}
h -t 0.20375 -s 1 -d 8 -p cbr -e 210 -c 0 -i 25 -a 0 -x {1.0 5.0 -1 ------- null}
d -t 0.203754 -s 7 -d 8 -p cbr -e 210 -c 0 -i 25 -a 0 -x {1.0 5.0 25 ------- null}
d -t 0.203754 -s 6 -d 8 -p cbr -e 210 -c 0 -i 25 -a 0 -x {1.0 5.0 25 ------- null}
d -t 0.203754 -s 4 -d 8 -p cbr -e 210 -c 0 -i 25 -a 0 -x {1.0 5.0 25 ------- null}
d -t 0.203754 -s 3 -d 8 -p cbr -e 210 -c 0 -i 25 -a 0 -x {1.0 5.0 25 ------- null}
d -t 0.203754 -s 2 -d 8 -p cbr -e 210 -c 0 -i 25 -a 0 -x {1.0 5.0 25 ------- null}
d -t 0.203754 -s 0 -d 8 -p cbr -e 210 -c 0 -i 25 -a 0 -x {1.0 5.0 25 ------- null}
h -t 0.205 -s 1 -d 8 -p cbr -e 210 -c 0 -i 28 -a 0 -x {1.0 5.0 28 ------- null}
r -t 0.206254 -s 8 -d 5 -p cbr -e 210 -c 0 -i 23 -a 0 -x {1.0 5.0 23 ------- null}
+ -t 0.2075 -s 1 -d 8 -p cbr -e 210 -c 0 -i 26 -a 0 -x {1.0 5.0 26 ------- null}
- -t 0.2075 -s 1 -d 8 -p cbr -e 210 -c 0 -i 26 -a 0 -x {1.0 5.0 26 ------- null}
h -t 0.2075 -s 1 -d 8 -p cbr -e 210 -c 0 -i 26 -a 0 -x {1.0 5.0 -1 ------- null}
d -t 0.207504 -s 7 -d 8 -p cbr -e 210 -c 0 -i 26 -a 0 -x {1.0 5.0 26 ------- null}
d -t 0.207504 -s 6 -d 8 -p cbr -e 210 -c 0 -i 26 -a 0 -x {1.0 5.0 26 ------- null}
d -t 0.207504 -s 4 -d 8 -p cbr -e 210 -c 0 -i 26 -a 0 -x {1.0 5.0 26 ------- null}
d -t 0.207504 -s 3 -d 8 -p cbr -e 210 -c 0 -i 26 -a 0 -x {1.0 5.0 26 ------- null}
d -t 0.207504 -s 2 -d 8 -p cbr -e 210 -c 0 -i 26 -a 0 -x {1.0 5.0 26 ------- null}
d -t 0.207504 -s 0 -d 8 -p cbr -e 210 -c 0 -i 26 -a 0 -x {1.0 5.0 26 ------- null}
h -t 0.20875 -s 1 -d 8 -p cbr -e 210 -c 0 -i 29 -a 0 -x {1.0 5.0 29 ------- null}
r -t 0.210004 -s 8 -d 5 -p cbr -e 210 -c 0 -i 24 -a 0 -x {1.0 5.0 24 ------- null}
+ -t 0.21125 -s 1 -d 8 -p cbr -e 210 -c 0 -i 27 -a 0 -x {1.0 5.0 27 ------- null}
- -t 0.21125 -s 1 -d 8 -p cbr -e 210 -c 0 -i 27 -a 0 -x {1.0 5.0 27 ------- null}
h -t 0.21125 -s 1 -d 8 -p cbr -e 210 -c 0 -i 27 -a 0 -x {1.0 5.0 -1 ------- null}
d -t 0.211254 -s 7 -d 8 -p cbr -e 210 -c 0 -i 27 -a 0 -x {1.0 5.0 27 ------- null}
d -t 0.211254 -s 6 -d 8 -p cbr -e 210 -c 0 -i 27 -a 0 -x {1.0 5.0 27 ------- null}
d -t 0.211254 -s 4 -d 8 -p cbr -e 210 -c 0 -i 27 -a 0 -x {1.0 5.0 27 ------- null}
d -t 0.211254 -s 3 -d 8 -p cbr -e 210 -c 0 -i 27 -a 0 -x {1.0 5.0 27 ------- null}
d -t 0.211254 -s 2 -d 8 -p cbr -e 210 -c 0 -i 27 -a 0 -x {1.0 5.0 27 ------- null}
d -t 0.211254 -s 0 -d 8 -p cbr -e 210 -c 0 -i 27 -a 0 -x {1.0 5.0 27 ------- null}
h -t 0.2125 -s 1 -d 8 -p cbr -e 210 -c 0 -i 30 -a 0 -x {1.0 5.0 30 ------- null}
r -t 0.213754 -s 8 -d 5 -p cbr -e 210 -c 0 -i 25 -a 0 -x {1.0 5.0 25 ------- null}
+ -t 0.215 -s 1 -d 8 -p cbr -e 210 -c 0 -i 28 -a 0 -x {1.0 5.0 28 ------- null}
- -t 0.215 -s 1 -d 8 -p cbr -e 210 -c 0 -i 28 -a 0 -x {1.0 5.0 28 ------- null}
h -t 0.215 -s 1 -d 8 -p cbr -e 210 -c 0 -i 28 -a 0 -x {1.0 5.0 -1 ------- null}
d -t 0.215004 -s 7 -d 8 -p cbr -e 210 -c 0 -i 28 -a 0 -x {1.0 5.0 28 ------- null}
d -t 0.215004 -s 6 -d 8 -p cbr -e 210 -c 0 -i 28 -a 0 -x {1.0 5.0 28 ------- null}
d -t 0.215004 -s 4 -d 8 -p cbr -e 210 -c 0 -i 28 -a 0 -x {1.0 5.0 28 ------- null}
d -t 0.215004 -s 3 -d 8 -p cbr -e 210 -c 0 -i 28 -a 0 -x {1.0 5.0 28 ------- null}
d -t 0.215004 -s 2 -d 8 -p cbr -e 210 -c 0 -i 28 -a 0 -x {1.0 5.0 28 ------- null}
d -t 0.215004 -s 0 -d 8 -p cbr -e 210 -c 0 -i 28 -a 0 -x {1.0 5.0 28 ------- null}
h -t 0.21625 -s 1 -d 8 -p cbr -e 210 -c 0 -i 31 -a 0 -x {1.0 5.0 31 ------- null}
r -t 0.217504 -s 8 -d 5 -p cbr -e 210 -c 0 -i 26 -a 0 -x {1.0 5.0 26 ------- null}
+ -t 0.21875 -s 1 -d 8 -p cbr -e 210 -c 0 -i 29 -a 0 -x {1.0 5.0 29 ------- null}
- -t 0.21875 -s 1 -d 8 -p cbr -e 210 -c 0 -i 29 -a 0 -x {1.0 5.0 29 ------- null}
h -t 0.21875 -s 1 -d 8 -p cbr -e 210 -c 0 -i 29 -a 0 -x {1.0 5.0 -1 ------- null}
d -t 0.218754 -s 7 -d 8 -p cbr -e 210 -c 0 -i 29 -a 0 -x {1.0 5.0 29 ------- null}
d -t 0.218754 -s 6 -d 8 -p cbr -e 210 -c 0 -i 29 -a 0 -x {1.0 5.0 29 ------- null}
d -t 0.218754 -s 4 -d 8 -p cbr -e 210 -c 0 -i 29 -a 0 -x {1.0 5.0 29 ------- null}
d -t 0.218754 -s 3 -d 8 -p cbr -e 210 -c 0 -i 29 -a 0 -x {1.0 5.0 29 ------- null}
d -t 0.218754 -s 2 -d 8 -p cbr -e 210 -c 0 -i 29 -a 0 -x {1.0 5.0 29 ------- null}
d -t 0.218754 -s 0 -d 8 -p cbr -e 210 -c 0 -i 29 -a 0 -x {1.0 5.0 29 ------- null}
h -t 0.22 -s 1 -d 8 -p cbr -e 210 -c 0 -i 32 -a 0 -x {1.0 5.0 32 ------- null}
r -t 0.221254 -s 8 -d 5 -p cbr -e 210 -c 0 -i 27 -a 0 -x {1.0 5.0 27 ------- null}
+ -t 0.2225 -s 1 -d 8 -p cbr -e 210 -c 0 -i 30 -a 0 -x {1.0 5.0 30 ------- null}
- -t 0.2225 -s 1 -d 8 -p cbr -e 210 -c 0 -i 30 -a 0 -x {1.0 5.0 30 ------- null}
h -t 0.2225 -s 1 -d 8 -p cbr -e 210 -c 0 -i 30 -a 0 -x {1.0 5.0 -1 ------- null}
d -t 0.222504 -s 7 -d 8 -p cbr -e 210 -c 0 -i 30 -a 0 -x {1.0 5.0 30 ------- null}
d -t 0.222504 -s 6 -d 8 -p cbr -e 210 -c 0 -i 30 -a 0 -x {1.0 5.0 30 ------- null}
d -t 0.222504 -s 4 -d 8 -p cbr -e 210 -c 0 -i 30 -a 0 -x {1.0 5.0 30 ------- null}
d -t 0.222504 -s 3 -d 8 -p cbr -e 210 -c 0 -i 30 -a 0 -x {1.0 5.0 30 ------- null}
d -t 0.222504 -s 2 -d 8 -p cbr -e 210 -c 0 -i 30 -a 0 -x {1.0 5.0 30 ------- null}
d -t 0.222504 -s 0 -d 8 -p cbr -e 210 -c 0 -i 30 -a 0 -x {1.0 5.0 30 ------- null}
h -t 0.22375 -s 1 -d 8 -p cbr -e 210 -c 0 -i 33 -a 0 -x {1.0 5.0 33 ------- null}
r -t 0.225004 -s 8 -d 5 -p cbr -e 210 -c 0 -i 28 -a 0 -x {1.0 5.0 28 ------- null}
+ -t 0.22625 -s 1 -d 8 -p cbr -e 210 -c 0 -i 31 -a 0 -x {1.0 5.0 31 ------- null}
- -t 0.22625 -s 1 -d 8 -p cbr -e 210 -c 0 -i 31 -a 0 -x {1.0 5.0 31 ------- null}
h -t 0.22625 -s 1 -d 8 -p cbr -e 210 -c 0 -i 31 -a 0 -x {1.0 5.0 -1 ------- null}
d -t 0.226254 -s 7 -d 8 -p cbr -e 210 -c 0 -i 31 -a 0 -x {1.0 5.0 31 ------- null}
d -t 0.226254 -s 6 -d 8 -p cbr -e 210 -c 0 -i 31 -a 0 -x {1.0 5.0 31 ------- null}
d -t 0.226254 -s 4 -d 8 -p cbr -e 210 -c 0 -i 31 -a 0 -x {1.0 5.0 31 ------- null}
d -t 0.226254 -s 3 -d 8 -p cbr -e 210 -c 0 -i 31 -a 0 -x {1.0 5.0 31 ------- null}
d -t 0.226254 -s 2 -d 8 -p cbr -e 210 -c 0 -i 31 -a 0 -x {1.0 5.0 31 ------- null}
d -t 0.226254 -s 0 -d 8 -p cbr -e 210 -c 0 -i 31 -a 0 -x {1.0 5.0 31 ------- null}
h -t 0.2275 -s 1 -d 8 -p cbr -e 210 -c 0 -i 34 -a 0 -x {1.0 5.0 34 ------- null}
r -t 0.228754 -s 8 -d 5 -p cbr -e 210 -c 0 -i 29 -a 0 -x {1.0 5.0 29 ------- null}
+ -t 0.23 -s 1 -d 8 -p cbr -e 210 -c 0 -i 32 -a 0 -x {1.0 5.0 32 ------- null}
- -t 0.23 -s 1 -d 8 -p cbr -e 210 -c 0 -i 32 -a 0 -x {1.0 5.0 32 ------- null}
h -t 0.23 -s 1 -d 8 -p cbr -e 210 -c 0 -i 32 -a 0 -x {1.0 5.0 -1 ------- null}
d -t 0.230004 -s 7 -d 8 -p cbr -e 210 -c 0 -i 32 -a 0 -x {1.0 5.0 32 ------- null}
d -t 0.230004 -s 6 -d 8 -p cbr -e 210 -c 0 -i 32 -a 0 -x {1.0 5.0 32 ------- null}