+ 0 0 1 cbr 210 ------- 0 0.0 2.0 0 0
- 0 0 1 cbr 210 ------- 0 0.0 2.0 0 0
+ 0.00375 0 1 cbr 210 ------- 0 0.0 2.0 1 1
- 0.00375 0 1 cbr 210 ------- 0 0.0 2.0 1 1
+ 0.0075 0 1 cbr 210 ------- 0 0.0 2.0 2 2
- 0.0075 0 1 cbr 210 ------- 0 0.0 2.0 2 2
+ 0.01125 0 1 cbr 210 ------- 0 0.0 2.0 3 3
- 0.01125 0 1 cbr 210 ------- 0 0.0 2.0 3 3
r 0.01168 0 1 cbr 210 ------- 0 0.0 2.0 0 0
+ 0.01168 1 2 cbr 210 ------- 0 0.0 2.0 0 0
- 0.01168 1 2 cbr 210 ------- 0 0.0 2.0 0 0
+ 0.015 0 1 cbr 210 ------- 0 0.0 2.0 4 4
- 0.015 0 1 cbr 210 ------- 0 0.0 2.0 4 4
r 0.01543 0 1 cbr 210 ------- 0 0.0 2.0 1 1
+ 0.01543 1 2 cbr 210 ------- 0 0.0 2.0 1 1
- 0.01543 1 2 cbr 210 ------- 0 0.0 2.0 1 1
+ 0.01875 0 1 cbr 210 ------- 0 0.0 2.0 5 5
- 0.01875 0 1 cbr 210 ------- 0 0.0 2.0 5 5
r 0.01918 0 1 cbr 210 ------- 0 0.0 2.0 2 2
+ 0.01918 1 2 cbr 210 ------- 0 0.0 2.0 2 2
- 0.01918 1 2 cbr 210 ------- 0 0.0 2.0 2 2
+ 0.0225 0 1 cbr 210 ------- 0 0.0 2.0 6 6
- 0.0225 0 1 cbr 210 ------- 0 0.0 2.0 6 6
r 0.02293 0 1 cbr 210 ------- 0 0.0 2.0 3 3
+ 0.02293 1 2 cbr 210 ------- 0 0.0 2.0 3 3
- 0.02293 1 2 cbr 210 ------- 0 0.0 2.0 3 3
r 0.02336 1 2 cbr 210 ------- 0 0.0 2.0 0 0
+ 0.02625 0 1 cbr 210 ------- 0 0.0 2.0 7 7
- 0.02625 0 1 cbr 210 ------- 0 0.0 2.0 7 7
r 0.02668 0 1 cbr 210 ------- 0 0.0 2.0 4 4
+ 0.02668 1 2 cbr 210 ------- 0 0.0 2.0 4 4
- 0.02668 1 2 cbr 210 ------- 0 0.0 2.0 4 4
r 0.02711 1 2 cbr 210 ------- 0 0.0 2.0 1 1
+ 0.03 0 1 cbr 210 ------- 0 0.0 2.0 8 8
- 0.03 0 1 cbr 210 ------- 0 0.0 2.0 8 8
r 0.03043 0 1 cbr 210 ------- 0 0.0 2.0 5 5
+ 0.03043 1 2 cbr 210 ------- 0 0.0 2.0 5 5
- 0.03043 1 2 cbr 210 ------- 0 0.0 2.0 5 5
r 0.03086 1 2 cbr 210 ------- 0 0.0 2.0 2 2
+ 0.03375 0 1 cbr 210 ------- 0 0.0 2.0 9 9
- 0.03375 0 1 cbr 210 ------- 0 0.0 2.0 9 9
r 0.03418 0 1 cbr 210 ------- 0 0.0 2.0 6 6
+ 0.03418 1 2 cbr 210 ------- 0 0.0 2.0 6 6
- 0.03418 1 2 cbr 210 ------- 0 0.0 2.0 6 6
r 0.03461 1 2 cbr 210 ------- 0 0.0 2.0 3 3
+ 0.0375 0 1 cbr 210 ------- 0 0.0 2.0 10 10
- 0.0375 0 1 cbr 210 ------- 0 0.0 2.0 10 10
r 0.03793 0 1 cbr 210 ------- 0 0.0 2.0 7 7
+ 0.03793 1 2 cbr 210 ------- 0 0.0 2.0 7 7
- 0.03793 1 2 cbr 210 ------- 0 0.0 2.0 7 7
r 0.03836 1 2 cbr 210 ------- 0 0.0 2.0 4 4
+ 0.04125 0 1 cbr 210 ------- 0 0.0 2.0 11 11
- 0.04125 0 1 cbr 210 ------- 0 0.0 2.0 11 11
r 0.04168 0 1 cbr 210 ------- 0 0.0 2.0 8 8
+ 0.04168 1 2 cbr 210 ------- 0 0.0 2.0 8 8
- 0.04168 1 2 cbr 210 ------- 0 0.0 2.0 8 8
r 0.04211 1 2 cbr 210 ------- 0 0.0 2.0 5 5
+ 0.045 0 1 cbr 210 ------- 0 0.0 2.0 12 12
- 0.045 0 1 cbr 210 ------- 0 0.0 2.0 12 12
r 0.04543 0 1 cbr 210 ------- 0 0.0 2.0 9 9
+ 0.04543 1 2 cbr 210 ------- 0 0.0 2.0 9 9
- 0.04543 1 2 cbr 210 ------- 0 0.0 2.0 9 9
r 0.04586 1 2 cbr 210 ------- 0 0.0 2.0 6 6
+ 0.04875 0 1 cbr 210 ------- 0 0.0 2.0 13 13
- 0.04875 0 1 cbr 210 ------- 0 0.0 2.0 13 13
r 0.04918 0 1 cbr 210 ------- 0 0.0 2.0 10 10
+ 0.04918 1 2 cbr 210 ------- 0 0.0 2.0 10 10
- 0.04918 1 2 cbr 210 ------- 0 0.0 2.0 10 10
r 0.04961 1 2 cbr 210 ------- 0 0.0 2.0 7 7
+ 0.0525 0 1 cbr 210 ------- 0 0.0 2.0 14 14
- 0.0525 0 1 cbr 210 ------- 0 0.0 2.0 14 14
r 0.05293 0 1 cbr 210 ------- 0 0.0 2.0 11 11
+ 0.05293 1 2 cbr 210 ------- 0 0.0 2.0 11 11
- 0.05293 1 2 cbr 210 ------- 0 0.0 2.0 11 11
r 0.05336 1 2 cbr 210 ------- 0 0.0 2.0 8 8
+ 0.05625 0 1 cbr 210 ------- 0 0.0 2.0 15 15
- 0.05625 0 1 cbr 210 ------- 0 0.0 2.0 15 15
r 0.05668 0 1 cbr 210 ------- 0 0.0 2.0 12 12
+ 0.05668 1 2 cbr 210 ------- 0 0.0 2.0 12 12
- 0.05668 1 2 cbr 210 ------- 0 0.0 2.0 12 12
r 0.05711 1 2 cbr 210 ------- 0 0.0 2.0 9 9
+ 0.06 0 1 cbr 210 ------- 0 0.0 2.0 16 16
- 0.06 0 1 cbr 210 ------- 0 0.0 2.0 16 16
r 0.06043 0 1 cbr 210 ------- 0 0.0 2.0 13 13
+ 0.06043 1 2 cbr 210 ------- 0 0.0 2.0 13 13
- 0.06043 1 2 cbr 210 ------- 0 0.0 2.0 13 13
r 0.06086 1 2 cbr 210 ------- 0 0.0 2.0 10 10
+ 0.06375 0 1 cbr 210 ------- 0 0.0 2.0 17 17
- 0.06375 0 1 cbr 210 ------- 0 0.0 2.0 17 17
r 0.06418 0 1 cbr 210 ------- 0 0.0 2.0 14 14
+ 0.06418 1 2 cbr 210 ------- 0 0.0 2.0 14 14
- 0.06418 1 2 cbr 210 ------- 0 0.0 2.0 14 14
r 0.06461 1 2 cbr 210 ------- 0 0.0 2.0 11 11
+ 0.0675 0 1 cbr 210 ------- 0 0.0 2.0 18 18
- 0.0675 0 1 cbr 210 ------- 0 0.0 2.0 18 18
r 0.06793 0 1 cbr 210 ------- 0 0.0 2.0 15 15
+ 0.06793 1 2 cbr 210 ------- 0 0.0 2.0 15 15
- 0.06793 1 2 cbr 210 ------- 0 0.0 2.0 15 15
r 0.06836 1 2 cbr 210 ------- 0 0.0 2.0 12 12
+ 0.07125 0 1 cbr 210 ------- 0 0.0 2.0 19 19
- 0.07125 0 1 cbr 210 ------- 0 0.0 2.0 19 19
r 0.07168 0 1 cbr 210 ------- 0 0.0 2.0 16 16
+ 0.07168 1 2 cbr 210 ------- 0 0.0 2.0 16 16
- 0.07168 1 2 cbr 210 ------- 0 0.0 2.0 16 16
r 0.07211 1 2 cbr 210 ------- 0 0.0 2.0 13 13
+ 0.075 0 1 cbr 210 ------- 0 0.0 2.0 20 20
- 0.075 0 1 cbr 210 ------- 0 0.0 2.0 20 20
r 0.07543 0 1 cbr 210 ------- 0 0.0 2.0 17 17
+ 0.07543 1 2 cbr 210 ------- 0 0.0 2.0 17 17
- 0.07543 1 2 cbr 210 ------- 0 0.0 2.0 17 17
r 0.07586 1 2 cbr 210 ------- 0 0.0 2.0 14 14
+ 0.07875 0 1 cbr 210 ------- 0 0.0 2.0 21 21
- 0.07875 0 1 cbr 210 ------- 0 0.0 2.0 21 21
r 0.07918 0 1 cbr 210 ------- 0 0.0 2.0 18 18
+ 0.07918 1 2 cbr 210 ------- 0 0.0 2.0 18 18
- 0.07918 1 2 cbr 210 ------- 0 0.0 2.0 18 18
r 0.07961 1 2 cbr 210 ------- 0 0.0 2.0 15 15
+ 0.0825 0 1 cbr 210 ------- 0 0.0 2.0 22 22
- 0.0825 0 1 cbr 210 ------- 0 0.0 2.0 22 22
r 0.08293 0 1 cbr 210 ------- 0 0.0 2.0 19 19
+ 0.08293 1 2 cbr 210 ------- 0 0.0 2.0 19 19
- 0.08293 1 2 cbr 210 ------- 0 0.0 2.0 19 19
r 0.08336 1 2 cbr 210 ------- 0 0.0 2.0 16 16
+ 0.08625 0 1 cbr 210 ------- 0 0.0 2.0 23 23
- 0.08625 0 1 cbr 210 ------- 0 0.0 2.0 23 23
r 0.08668 0 1 cbr 210 ------- 0 0.0 2.0 20 20
+ 0.08668 1 2 cbr 210 ------- 0 0.0 2.0 20 20
- 0.08668 1 2 cbr 210 ------- 0 0.0 2.0 20 20
r 0.08711 1 2 cbr 210 ------- 0 0.0 2.0 17 17
+ 0.09 0 1 cbr 210 ------- 0 0.0 2.0 24 24
- 0.09 0 1 cbr 210 ------- 0 0.0 2.0 24 24
r 0.09043 0 1 cbr 210 ------- 0 0.0 2.0 21 21
+ 0.09043 1 2 cbr 210 ------- 0 0.0 2.0 21 21
- 0.09043 1 2 cbr 210 ------- 0 0.0 2.0 21 21
r 0.09086 1 2 cbr 210 ------- 0 0.0 2.0 18 18
+ 0.09375 0 1 cbr 210 ------- 0 0.0 2.0 25 25
- 0.09375 0 1 cbr 210 ------- 0 0.0 2.0 25 25
r 0.09418 0 1 cbr 210 ------- 0 0.0 2.0 22 22
+ 0.09418 1 2 cbr 210 ------- 0 0.0 2.0 22 22
- 0.09418 1 2 cbr 210 ------- 0 0.0 2.0 22 22
r 0.09461 1 2 cbr 210 ------- 0 0.0 2.0 19 19
+ 0.0975 0 1 cbr 210 ------- 0 0.0 2.0 26 26
- 0.0975 0 1 cbr 210 ------- 0 0.0 2.0 26 26
r 0.09793 0 1 cbr 210 ------- 0 0.0 2.0 23 23
+ 0.09793 1 2 cbr 210 ------- 0 0.0 2.0 23 23
- 0.09793 1 2 cbr 210 ------- 0 0.0 2.0 23 23
r 0.09836 1 2 cbr 210 ------- 0 0.0 2.0 20 20
+ 0.10125 0 1 cbr 210 ------- 0 0.0 2.0 27 27
- 0.10125 0 1 cbr 210 ------- 0 0.0 2.0 27 27
r 0.10168 0 1 cbr 210 ------- 0 0.0 2.0 24 24
+ 0.10168 1 2 cbr 210 ------- 0 0.0 2.0 24 24
- 0.10168 1 2 cbr 210 ------- 0 0.0 2.0 24 24
r 0.10211 1 2 cbr 210 ------- 0 0.0 2.0 21 21
+ 0.105 0 1 cbr 210 ------- 0 0.0 2.0 28 28
- 0.105 0 1 cbr 210 ------- 0 0.0 2.0 28 28
r 0.10543 0 1 cbr 210 ------- 0 0.0 2.0 25 25
+ 0.10543 1 2 cbr 210 ------- 0 0.0 2.0 25 25
- 0.10543 1 2 cbr 210 ------- 0 0.0 2.0 25 25
r 0.10586 1 2 cbr 210 ------- 0 0.0 2.0 22 22
+ 0.10875 0 1 cbr 210 ------- 0 0.0 2.0 29 29
- 0.10875 0 1 cbr 210 ------- 0 0.0 2.0 29 29
r 0.10918 0 1 cbr 210 ------- 0 0.0 2.0 26 26
+ 0.10918 1 2 cbr 210 ------- 0 0.0 2.0 26 26
- 0.10918 1 2 cbr 210 ------- 0 0.0 2.0 26 26
r 0.10961 1 2 cbr 210 ------- 0 0.0 2.0 23 23
+ 0.1125 0 1 cbr 210 ------- 0 0.0 2.0 30 30
- 0.1125 0 1 cbr 210 ------- 0 0.0 2.0 30 30
r 0.11293 0 1 cbr 210 ------- 0 0.0 2.0 27 27
+ 0.11293 1 2 cbr 210 ------- 0 0.0 2.0 27 27
- 0.11293 1 2 cbr 210 ------- 0 0.0 2.0 27 27
r 0.11336 1 2 cbr 210 ------- 0 0.0 2.0 24 24
+ 0.11625 0 1 cbr 210 ------- 0 0.0 2.0 31 31
- 0.11625 0 1 cbr 210 ------- 0 0.0 2.0 31 31
r 0.11668 0 1 cbr 210 ------- 0 0.0 2.0 28 28
+ 0.11668 1 2 cbr 210 ------- 0 0.0 2.0 28 28
- 0.11668 1 2 cbr 210 ------- 0 0.0 2.0 28 28
r 0.11711 1 2 cbr 210 ------- 0 0.0 2.0 25 25
+ 0.12 0 1 cbr 210 ------- 0 0.0 2.0 32 32
- 0.12 0 1 cbr 210 ------- 0 0.0 2.0 32 32
r 0.12043 0 1 cbr 210 ------- 0 0.0 2.0 29 29
+ 0.12043 1 2 cbr 210 ------- 0 0.0 2.0 29 29
- 0.12043 1 2 cbr 210 ------- 0 0.0 2.0 29 29
r 0.12086 1 2 cbr 210 ------- 0 0.0 2.0 26 26
+ 0.12375 0 1 cbr 210 ------- 0 0.0 2.0 33 33
- 0.12375 0 1 cbr 210 ------- 0 0.0 2.0 33 33
r 0.12418 0 1 cbr 210 ------- 0 0.0 2.0 30 30
+ 0.12418 1 2 cbr 210 ------- 0 0.0 2.0 30 30
- 0.12418 1 2 cbr 210 ------- 0 0.0 2.0 30 30
r 0.12461 1 2 cbr 210 ------- 0 0.0 2.0 27 27
+ 0.1275 0 1 cbr 210 ------- 0 0.0 2.0 34 34
- 0.1275 0 1 cbr 210 ------- 0 0.0 2.0 34 34
r 0.12793 0 1 cbr 210 ------- 0 0.0 2.0 31 31
+ 0.12793 1 2 cbr 210 ------- 0 0.0 2.0 31 31
- 0.12793 1 2 cbr 210 ------- 0 0.0 2.0 31 31
r 0.12836 1 2 cbr 210 ------- 0 0.0 2.0 28 28
+ 0.13125 0 1 cbr 210 ------- 0 0.0 2.0 35 35
- 0.13125 0 1 cbr 210 ------- 0 0.0 2.0 35 35
r 0.13168 0 1 cbr 210 ------- 0 0.0 2.0 32 32
+ 0.13168 1 2 cbr 210 ------- 0 0.0 2.0 32 32
- 0.13168 1 2 cbr 210 ------- 0 0.0 2.0 32 32
r 0.13211 1 2 cbr 210 ------- 0 0.0 2.0 29 29
+ 0.135 0 1 cbr 210 ------- 0 0.0 2.0 36 36
- 0.135 0 1 cbr 210 ------- 0 0.0 2.0 36 36
r 0.13543 0 1 cbr 210 ------- 0 0.0 2.0 33 33
+ 0.13543 1 2 cbr 210 ------- 0 0.0 2.0 33 33
- 0.13543 1 2 cbr 210 ------- 0 0.0 2.0 33 33
r 0.13586 1 2 cbr 210 ------- 0 0.0 2.0 30 30
+ 0.13875 0 1 cbr 210 ------- 0 0.0 2.0 37 37
- 0.13875 0 1 cbr 210 ------- 0 0.0 2.0 37 37
r 0.13918 0 1 cbr 210 ------- 0 0.0 2.0 34 34
+ 0.13918 1 2 cbr 210 ------- 0 0.0 2.0 34 34
- 0.13918 1 2 cbr 210 ------- 0 0.0 2.0 34 34
r 0.13961 1 2 cbr 210 ------- 0 0.0 2.0 31 31
+ 0.1425 0 1 cbr 210 ------- 0 0.0 2.0 38 38
- 0.1425 0 1 cbr 210 ------- 0 0.0 2.0 38 38
r 0.14293 0 1 cbr 210 ------- 0 0.0 2.0 35 35
+ 0.14293 1 2 cbr 210 ------- 0 0.0 2.0 35 35
- 0.14293 1 2 cbr 210 ------- 0 0.0 2.0 35 35
r 0.14336 1 2 cbr 210 ------- 0 0.0 2.0 32 32
+ 0.14625 0 1 cbr 210 ------- 0 0.0 2.0 39 39
- 0.14625 0 1 cbr 210 ------- 0 0.0 2.0 39 39
r 0.14668 0 1 cbr 210 ------- 0 0.0 2.0 36 36
+ 0.14668 1 2 cbr 210 ------- 0 0.0 2.0 36 36
- 0.14668 1 2 cbr 210 ------- 0 0.0 2.0 36 36
r 0.14711 1 2 cbr 210 ------- 0 0.0 2.0 33 33
+ 0.15 0 1 cbr 210 ------- 0 0.0 2.0 40 40
- 0.15 0 1 cbr 210 ------- 0 0.0 2.0 40 40
r 0.15043 0 1 cbr 210 ------- 0 0.0 2.0 37 37
+ 0.15043 1 2 cbr 210 ------- 0 0.0 2.0 37 37
- 0.15043 1 2 cbr 210 ------- 0 0.0 2.0 37 37
r 0.15086 1 2 cbr 210 ------- 0 0.0 2.0 34 34
+ 0.15375 0 1 cbr 210 ------- 0 0.0 2.0 41 41
- 0.15375 0 1 cbr 210 ------- 0 0.0 2.0 41 41
r 0.15418 0 1 cbr 210 ------- 0 0.0 2.0 38 38
+ 0.15418 1 2 cbr 210 ------- 0 0.0 2.0 38 38
- 0.15418 1 2 cbr 210 ------- 0 0.0 2.0 38 38
r 0.15461 1 2 cbr 210 ------- 0 0.0 2.0 35 35
+ 0.1575 0 1 cbr 210 ------- 0 0.0 2.0 42 42
- 0.1575 0 1 cbr 210 ------- 0 0.0 2.0 42 42
r 0.15793 0 1 cbr 210 ------- 0 0.0 2.0 39 39
+ 0.15793 1 2 cbr 210 ------- 0 0.0 2.0 39 39
- 0.15793 1 2 cbr 210 ------- 0 0.0 2.0 39 39
r 0.15836 1 2 cbr 210 ------- 0 0.0 2.0 36 36
+ 0.16125 0 1 cbr 210 ------- 0 0.0 2.0 43 43
- 0.16125 0 1 cbr 210 ------- 0 0.0 2.0 43 43
r 0.16168 0 1 cbr 210 ------- 0 0.0 2.0 40 40
+ 0.16168 1 2 cbr 210 ------- 0 0.0 2.0 40 40
- 0.16168 1 2 cbr 210 ------- 0 0.0 2.0 40 40
r 0.16211 1 2 cbr 210 ------- 0 0.0 2.0 37 37
+ 0.165 0 1 cbr 210 ------- 0 0.0 2.0 44 44
- 0.165 0 1 cbr 210 ------- 0 0.0 2.0 44 44
r 0.16543 0 1 cbr 210 ------- 0 0.0 2.0 41 41
+ 0.16543 1 2 cbr 210 ------- 0 0.0 2.0 41 41
- 0.16543 1 2 cbr 210 ------- 0 0.0 2.0 41 41
r 0.16586 1 2 cbr 210 ------- 0 0.0 2.0 38 38
+ 0.16875 0 1 cbr 210 ------- 0 0.0 2.0 45 45
- 0.16875 0 1 cbr 210 ------- 0 0.0 2.0 45 45
r 0.16918 0 1 cbr 210 ------- 0 0.0 2.0 42 42
+ 0.16918 1 2 cbr 210 ------- 0 0.0 2.0 42 42
- 0.16918 1 2 cbr 210 ------- 0 0.0 2.0 42 42
r 0.16961 1 2 cbr 210 ------- 0 0.0 2.0 39 39
+ 0.1725 0 1 cbr 210 ------- 0 0.0 2.0 46 46
- 0.1725 0 1 cbr 210 ------- 0 0.0 2.0 46 46
r 0.17293 0 1 cbr 210 ------- 0 0.0 2.0 43 43
+ 0.17293 1 2 cbr 210 ------- 0 0.0 2.0 43 43
- 0.17293 1 2 cbr 210 ------- 0 0.0 2.0 43 43
r 0.17336 1 2 cbr 210 ------- 0 0.0 2.0 40 40
+ 0.17625 0 1 cbr 210 ------- 0 0.0 2.0 47 47
- 0.17625 0 1 cbr 210 ------- 0 0.0 2.0 47 47
r 0.17668 0 1 cbr 210 ------- 0 0.0 2.0 44 44
+ 0.17668 1 2 cbr 210 ------- 0 0.0 2.0 44 44
- 0.17668 1 2 cbr 210 ------- 0 0.0 2.0 44 44
r 0.17711 1 2 cbr 210 ------- 0 0.0 2.0 41 41
+ 0.18 0 1 cbr 210 ------- 0 0.0 2.0 48 48
- 0.18 0 1 cbr 210 ------- 0 0.0 2.0 48 48
r 0.18043 0 1 cbr 210 ------- 0 0.0 2.0 45 45
+ 0.18043 1 2 cbr 210 ------- 0 0.0 2.0 45 45
- 0.18043 1 2 cbr 210 ------- 0 0.0 2.0 45 45
r 0.18086 1 2 cbr 210 ------- 0 0.0 2.0 42 42
+ 0.18375 0 1 cbr 210 ------- 0 0.0 2.0 49 49
- 0.18375 0 1 cbr 210 ------- 0 0.0 2.0 49 49
r 0.18418 0 1 cbr 210 ------- 0 0.0 2.0 46 46
+ 0.18418 1 2 cbr 210 ------- 0 0.0 2.0 46 46
- 0.18418 1 2 cbr 210 ------- 0 0.0 2.0 46 46
r 0.18461 1 2 cbr 210 ------- 0 0.0 2.0 43 43
+ 0.1875 0 1 cbr 210 ------- 0 0.0 2.0 50 50
- 0.1875 0 1 cbr 210 ------- 0 0.0 2.0 50 50
r 0.18793 0 1 cbr 210 ------- 0 0.0 2.0 47 47
+ 0.18793 1 2 cbr 210 ------- 0 0.0 2.0 47 47
- 0.18793 1 2 cbr 210 ------- 0 0.0 2.0 47 47
r 0.18836 1 2 cbr 210 ------- 0 0.0 2.0 44 44
+ 0.19125 0 1 cbr 210 ------- 0 0.0 2.0 51 51
- 0.19125 0 1 cbr 210 ------- 0 0.0 2.0 51 51
r 0.19168 0 1 cbr 210 ------- 0 0.0 2.0 48 48
+ 0.19168 1 2 cbr 210 ------- 0 0.0 2.0 48 48
- 0.19168 1 2 cbr 210 ------- 0 0.0 2.0 48 48
r 0.19211 1 2 cbr 210 ------- 0 0.0 2.0 45 45
+ 0.195 0 1 cbr 210 ------- 0 0.0 2.0 52 52
- 0.195 0 1 cbr 210 ------- 0 0.0 2.0 52 52
r 0.19543 0 1 cbr 210 ------- 0 0.0 2.0 49 49
+ 0.19543 1 2 cbr 210 ------- 0 0.0 2.0 49 49
- 0.19543 1 2 cbr 210 ------- 0 0.0 2.0 49 49
r 0.19586 1 2 cbr 210 ------- 0 0.0 2.0 46 46
+ 0.19875 0 1 cbr 210 ------- 0 0.0 2.0 53 53
- 0.19875 0 1 cbr 210 ------- 0 0.0 2.0 53 53
r 0.19918 0 1 cbr 210 ------- 0 0.0 2.0 50 50
+ 0.19918 1 2 cbr 210 ------- 0 0.0 2.0 50 50
- 0.19918 1 2 cbr 210 ------- 0 0.0 2.0 50 50
r 0.19961 1 2 cbr 210 ------- 0 0.0 2.0 47 47
+ 0.2025 0 1 cbr 210 ------- 0 0.0 2.0 54 54
- 0.2025 0 1 cbr 210 ------- 0 0.0 2.0 54 54
r 0.20293 0 1 cbr 210 ------- 0 0.0 2.0 51 51
+ 0.20293 1 2 cbr 210 ------- 0 0.0 2.0 51 51
- 0.20293 1 2 cbr 210 ------- 0 0.0 2.0 51 51
r 0.20336 1 2 cbr 210 ------- 0 0.0 2.0 48 48
+ 0.20625 0 1 cbr 210 ------- 0 0.0 2.0 55 55
- 0.20625 0 1 cbr 210 ------- 0 0.0 2.0 55 55
r 0.20668 0 1 cbr 210 ------- 0 0.0 2.0 52 52
+ 0.20668 1 2 cbr 210 ------- 0 0.0 2.0 52 52
- 0.20668 1 2 cbr 210 ------- 0 0.0 2.0 52 52
r 0.20711 1 2 cbr 210 ------- 0 0.0 2.0 49 49
+ 0.21 0 1 cbr 210 ------- 0 0.0 2.0 56 56
- 0.21 0 1 cbr 210 ------- 0 0.0 2.0 56 56
r 0.21043 0 1 cbr 210 ------- 0 0.0 2.0 53 53
+ 0.21043 1 2 cbr 210 ------- 0 0.0 2.0 53 53
- 0.21043 1 2 cbr 210 ------- 0 0.0 2.0 53 53
r 0.21086 1 2 cbr 210 ------- 0 0.0 2.0 50 50
+ 0.21375 0 1 cbr 210 ------- 0 0.0 2.0 57 57
- 0.21375 0 1 cbr 210 ------- 0 0.0 2.0 57 57
r 0.21418 0 1 cbr 210 ------- 0 0.0 2.0 54 54
+ 0.21418 1 2 cbr 210 ------- 0 0.0 2.0 54 54
- 0.21418 1 2 cbr 210 ------- 0 0.0 2.0 54 54
r 0.21461 1 2 cbr 210 ------- 0 0.0 2.0 51 51
+ 0.2175 0 1 cbr 210 ------- 0 0.0 2.0 58 58
- 0.2175 0 1 cbr 210 ------- 0 0.0 2.0 58 58
r 0.21793 0 1 cbr 210 ------- 0 0.0 2.0 55 55
+ 0.21793 1 2 cbr 210 ------- 0 0.0 2.0 55 55
- 0.21793 1 2 cbr 210 ------- 0 0.0 2.0 55 55
r 0.21836 1 2 cbr 210 ------- 0 0.0 2.0 52 52
+ 0.22125 0 1 cbr 210 ------- 0 0.0 2.0 59 59
- 0.22125 0 1 cbr 210 ------- 0 0.0 2.0 59 59
r 0.22168 0 1 cbr 210 ------- 0 0.0 2.0 56 56
+ 0.22168 1 2 cbr 210 ------- 0 0.0 2.0 56 56
- 0.22168 1 2 cbr 210 ------- 0 0.0 2.0 56 56
r 0.22211 1 2 cbr 210 ------- 0 0.0 2.0 53 53
+ 0.225 0 1 cbr 210 ------- 0 0.0 2.0 60 60
- 0.225 0 1 cbr 210 ------- 0 0.0 2.0 60 60
r 0.22543 0 1 cbr 210 ------- 0 0.0 2.0 57 57
+ 0.22543 1 2 cbr 210 ------- 0 0.0 2.0 57 57
- 0.22543 1 2 cbr 210 ------- 0 0.0 2.0 57 57
r 0.22586 1 2 cbr 210 ------- 0 0.0 2.0 54 54
+ 0.22875 0 1 cbr 210 ------- 0 0.0 2.0 61 61
- 0.22875 0 1 cbr 210 ------- 0 0.0 2.0 61 61
r 0.22918 0 1 cbr 210 ------- 0 0.0 2.0 58 58
+ 0.22918 1 2 cbr 210 ------- 0 0.0 2.0 58 58
- 0.22918 1 2 cbr 210 ------- 0 0.0 2.0 58 58
r 0.22961 1 2 cbr 210 ------- 0 0.0 2.0 55 55
+ 0.2325 0 1 cbr 210 ------- 0 0.0 2.0 62 62
- 0.2325 0 1 cbr 210 ------- 0 0.0 2.0 62 62
r 0.23293 0 1 cbr 210 ------- 0 0.0 2.0 59 59
+ 0.23293 1 2 cbr 210 ------- 0 0.0 2.0 59 59
- 0.23293 1 2 cbr 210 ------- 0 0.0 2.0 59 59
r 0.23336 1 2 cbr 210 ------- 0 0.0 2.0 56 56
+ 0.23625 0 1 cbr 210 ------- 0 0.0 2.0 63 63
- 0.23625 0 1 cbr 210 ------- 0 0.0 2.0 63 63
r 0.23668 0 1 cbr 210 ------- 0 0.0 2.0 60 60
+ 0.23668 1 2 cbr 210 ------- 0 0.0 2.0 60 60
- 0.23668 1 2 cbr 210 ------- 0 0.0 2.0 60 60
r 0.23711 1 2 cbr 210 ------- 0 0.0 2.0 57 57
+ 0.24 0 1 cbr 210 ------- 0 0.0 2.0 64 64
- 0.24 0 1 cbr 210 ------- 0 0.0 2.0 64 64
r 0.24043 0 1 cbr 210 ------- 0 0.0 2.0 61 61
+ 0.24043 1 2 cbr 210 ------- 0 0.0 2.0 61 61
- 0.24043 1 2 cbr 210 ------- 0 0.0 2.0 61 61
r 0.24086 1 2 cbr 210 ------- 0 0.0 2.0 58 58
+ 0.24375 0 1 cbr 210 ------- 0 0.0 2.0 65 65
- 0.24375 0 1 cbr 210 ------- 0 0.0 2.0 65 65
r 0.24418 0 1 cbr 210 ------- 0 0.0 2.0 62 62
+ 0.24418 1 2 cbr 210 ------- 0 0.0 2.0 62 62
- 0.24418 1 2 cbr 210 ------- 0 0.0 2.0 62 62
r 0.24461 1 2 cbr 210 ------- 0 0.0 2.0 59 59
+ 0.2475 0 1 cbr 210 ------- 0 0.0 2.0 66 66
- 0.2475 0 1 cbr 210 ------- 0 0.0 2.0 66 66
r 0.24793 0 1 cbr 210 ------- 0 0.0 2.0 63 63
+ 0.24793 1 2 cbr 210 ------- 0 0.0 2.0 63 63
- 0.24793 1 2 cbr 210 ------- 0 0.0 2.0 63 63
r 0.24836 1 2 cbr 210 ------- 0 0.0 2.0 60 60
+ 0.25125 0 1 cbr 210 ------- 0 0.0 2.0 67 67
- 0.25125 0 1 cbr 210 ------- 0 0.0 2.0 67 67
r 0.25168 0 1 cbr 210 ------- 0 0.0 2.0 64 64
+ 0.25168 1 2 cbr 210 ------- 0 0.0 2.0 64 64
- 0.25168 1 2 cbr 210 ------- 0 0.0 2.0 64 64
r 0.25211 1 2 cbr 210 ------- 0 0.0 2.0 61 61
+ 0.255 0 1 cbr 210 ------- 0 0.0 2.0 68 68
- 0.255 0 1 cbr 210 ------- 0 0.0 2.0 68 68
r 0.25543 0 1 cbr 210 ------- 0 0.0 2.0 65 65
+ 0.25543 1 2 cbr 210 ------- 0 0.0 2.0 65 65
- 0.25543 1 2 cbr 210 ------- 0 0.0 2.0 65 65
r 0.25586 1 2 cbr 210 ------- 0 0.0 2.0 62 62
+ 0.25875 0 1 cbr 210 ------- 0 0.0 2.0 69 69
- 0.25875 0 1 cbr 210 ------- 0 0.0 2.0 69 69
r 0.25918 0 1 cbr 210 ------- 0 0.0 2.0 66 66
+ 0.25918 1 2 cbr 210 ------- 0 0.0 2.0 66 66
- 0.25918 1 2 cbr 210 ------- 0 0.0 2.0 66 66
r 0.25961 1 2 cbr 210 ------- 0 0.0 2.0 63 63
+ 0.2625 0 1 cbr 210 ------- 0 0.0 2.0 70 70
- 0.2625 0 1 cbr 210 ------- 0 0.0 2.0 70 70
r 0.26293 0 1 cbr 210 ------- 0 0.0 2.0 67 67
+ 0.26293 1 2 cbr 210 ------- 0 0.0 2.0 67 67
- 0.26293 1 2 cbr 210 ------- 0 0.0 2.0 67 67
r 0.26336 1 2 cbr 210 ------- 0 0.0 2.0 64 64
+ 0.26625 0 1 cbr 210 ------- 0 0.0 2.0 71 71
- 0.26625 0 1 cbr 210 ------- 0 0.0 2.0 71 71
r 0.26668 0 1 cbr 210 ------- 0 0.0 2.0 68 68
+ 0.26668 1 2 cbr 210 ------- 0 0.0 2.0 68 68
- 0.26668 1 2 cbr 210 ------- 0 0.0 2.0 68 68
r 0.26711 1 2 cbr 210 ------- 0 0.0 2.0 65 65
+ 0.27 0 1 cbr 210 ------- 0 0.0 2.0 72 72
- 0.27 0 1 cbr 210 ------- 0 0.0 2.0 72 72
r 0.27043 0 1 cbr 210 ------- 0 0.0 2.0 69 69
+ 0.27043 1 2 cbr 210 ------- 0 0.0 2.0 69 69
- 0.27043 1 2 cbr 210 ------- 0 0.0 2.0 69 69
r 0.27086 1 2 cbr 210 ------- 0 0.0 2.0 66 66
+ 0.27375 0 1 cbr 210 ------- 0 0.0 2.0 73 73
- 0.27375 0 1 cbr 210 ------- 0 0.0 2.0 73 73
r 0.27418 0 1 cbr 210 ------- 0 0.0 2.0 70 70
+ 0.27418 1 2 cbr 210 ------- 0 0.0 2.0 70 70
- 0.27418 1 2 cbr 210 ------- 0 0.0 2.0 70 70
r 0.27461 1 2 cbr 210 ------- 0 0.0 2.0 67 67
+ 0.2775 0 1 cbr 210 ------- 0 0.0 2.0 74 74
- 0.2775 0 1 cbr 210 ------- 0 0.0 2.0 74 74
r 0.27793 0 1 cbr 210 ------- 0 0.0 2.0 71 71
+ 0.27793 1 2 cbr 210 ------- 0 0.0 2.0 71 71
- 0.27793 1 2 cbr 210 ------- 0 0.0 2.0 71 71
r 0.27836 1 2 cbr 210 ------- 0 0.0 2.0 68 68
+ 0.28125 0 1 cbr 210 ------- 0 0.0 2.0 75 75
- 0.28125 0 1 cbr 210 ------- 0 0.0 2.0 75 75
r 0.28168 0 1 cbr 210 ------- 0 0.0 2.0 72 72
+ 0.28168 1 2 cbr 210 ------- 0 0.0 2.0 72 72
- 0.28168 1 2 cbr 210 ------- 0 0.0 2.0 72 72
r 0.28211 1 2 cbr 210 ------- 0 0.0 2.0 69 69
+ 0.285 0 1 cbr 210 ------- 0 0.0 2.0 76 76
- 0.285 0 1 cbr 210 ------- 0 0.0 2.0 76 76
r 0.28543 0 1 cbr 210 ------- 0 0.0 2.0 73 73
+ 0.28543 1 2 cbr 210 ------- 0 0.0 2.0 73 73
- 0.28543 1 2 cbr 210 ------- 0 0.0 2.0 73 73
r 0.28586 1 2 cbr 210 ------- 0 0.0 2.0 70 70
+ 0.28875 0 1 cbr 210 ------- 0 0.0 2.0 77 77
- 0.28875 0 1 cbr 210 ------- 0 0.0 2.0 77 77
r 0.28918 0 1 cbr 210 ------- 0 0.0 2.0 74 74
+ 0.28918 1 2 cbr 210 ------- 0 0.0 2.0 74 74
- 0.28918 1 2 cbr 210 ------- 0 0.0 2.0 74 74
r 0.28961 1 2 cbr 210 ------- 0 0.0 2.0 71 71
+ 0.2925 0 1 cbr 210 ------- 0 0.0 2.0 78 78
- 0.2925 0 1 cbr 210 ------- 0 0.0 2.0 78 78
r 0.29293 0 1 cbr 210 ------- 0 0.0 2.0 75 75
+ 0.29293 1 2 cbr 210 ------- 0 0.0 2.0 75 75
- 0.29293 1 2 cbr 210 ------- 0 0.0 2.0 75 75
r 0.29336 1 2 cbr 210 ------- 0 0.0 2.0 72 72
+ 0.29625 0 1 cbr 210 ------- 0 0.0 2.0 79 79
- 0.29625 0 1 cbr 210 ------- 0 0.0 2.0 79 79
r 0.29668 0 1 cbr 210 ------- 0 0.0 2.0 76 76
+ 0.29668 1 2 cbr 210 ------- 0 0.0 2.0 76 76
- 0.29668 1 2 cbr 210 ------- 0 0.0 2.0 76 76
r 0.29711 1 2 cbr 210 ------- 0 0.0 2.0 73 73
+ 0.3 0 1 cbr 210 ------- 0 0.0 2.0 80 80
- 0.3 0 1 cbr 210 ------- 0 0.0 2.0 80 80
r 0.30043 0 1 cbr 210 ------- 0 0.0 2.0 77 77
+ 0.30043 1 2 cbr 210 ------- 0 0.0 2.0 77 77
- 0.30043 1 2 cbr 210 ------- 0 0.0 2.0 77 77
r 0.30086 1 2 cbr 210 ------- 0 0.0 2.0 74 74
+ 0.30375 0 1 cbr 210 ------- 0 0.0 2.0 81 81
- 0.30375 0 1 cbr 210 ------- 0 0.0 2.0 81 81
r 0.30418 0 1 cbr 210 ------- 0 0.0 2.0 78 78
+ 0.30418 1 2 cbr 210 ------- 0 0.0 2.0 78 78
- 0.30418 1 2 cbr 210 ------- 0 0.0 2.0 78 78
r 0.30461 1 2 cbr 210 ------- 0 0.0 2.0 75 75
+ 0.3075 0 1 cbr 210 ------- 0 0.0 2.0 82 82
- 0.3075 0 1 cbr 210 ------- 0 0.0 2.0 82 82
r 0.30793 0 1 cbr 210 ------- 0 0.0 2.0 79 79
+ 0.30793 1 2 cbr 210 ------- 0 0.0 2.0 79 79
- 0.30793 1 2 cbr 210 ------- 0 0.0 2.0 79 79
r 0.30836 1 2 cbr 210 ------- 0 0.0 2.0 76 76
+ 0.31125 0 1 cbr 210 ------- 0 0.0 2.0 83 83
- 0.31125 0 1 cbr 210 ------- 0 0.0 2.0 83 83
r 0.31168 0 1 cbr 210 ------- 0 0.0 2.0 80 80
+ 0.31168 1 2 cbr 210 ------- 0 0.0 2.0 80 80
- 0.31168 1 2 cbr 210 ------- 0 0.0 2.0 80 80
r 0.31211 1 2 cbr 210 ------- 0 0.0 2.0 77 77
+ 0.315 0 1 cbr 210 ------- 0 0.0 2.0 84 84
- 0.315 0 1 cbr 210 ------- 0 0.0 2.0 84 84
r 0.31543 0 1 cbr 210 ------- 0 0.0 2.0 81 81
+ 0.31543 1 2 cbr 210 ------- 0 0.0 2.0 81 81
- 0.31543 1 2 cbr 210 ------- 0 0.0 2.0 81 81
r 0.31586 1 2 cbr 210 ------- 0 0.0 2.0 78 78
+ 0.31875 0 1 cbr 210 ------- 0 0.0 2.0 85 85
- 0.31875 0 1 cbr 210 ------- 0 0.0 2.0 85 85
r 0.31918 0 1 cbr 210 ------- 0 0.0 2.0 82 82
+ 0.31918 1 2 cbr 210 ------- 0 0.0 2.0 82 82
- 0.31918 1 2 cbr 210 ------- 0 0.0 2.0 82 82
r 0.31961 1 2 cbr 210 ------- 0 0.0 2.0 79 79
+ 0.3225 0 1 cbr 210 ------- 0 0.0 2.0 86 86
- 0.3225 0 1 cbr 210 ------- 0 0.0 2.0 86 86
r 0.32293 0 1 cbr 210 ------- 0 0.0 2.0 83 83
+ 0.32293 1 2 cbr 210 ------- 0 0.0 2.0 83 83
- 0.32293 1 2 cbr 210 ------- 0 0.0 2.0 83 83
r 0.32336 1 2 cbr 210 ------- 0 0.0 2.0 80 80
+ 0.32625 0 1 cbr 210 ------- 0 0.0 2.0 87 87
- 0.32625 0 1 cbr 210 ------- 0 0.0 2.0 87 87
r 0.32668 0 1 cbr 210 ------- 0 0.0 2.0 84 84
+ 0.32668 1 2 cbr 210 ------- 0 0.0 2.0 84 84
- 0.32668 1 2 cbr 210 ------- 0 0.0 2.0 84 84
r 0.32711 1 2 cbr 210 ------- 0 0.0 2.0 81 81
+ 0.33 0 1 cbr 210 ------- 0 0.0 2.0 88 88
- 0.33 0 1 cbr 210 ------- 0 0.0 2.0 88 88
r 0.33043 0 1 cbr 210 ------- 0 0.0 2.0 85 85
+ 0.33043 1 2 cbr 210 ------- 0 0.0 2.0 85 85
- 0.33043 1 2 cbr 210 ------- 0 0.0 2.0 85 85
r 0.33086 1 2 cbr 210 ------- 0 0.0 2.0 82 82
+ 0.33375 0 1 cbr 210 ------- 0 0.0 2.0 89 89
- 0.33375 0 1 cbr 210 ------- 0 0.0 2.0 89 89
r 0.33418 0 1 cbr 210 ------- 0 0.0 2.0 86 86
+ 0.33418 1 2 cbr 210 ------- 0 0.0 2.0 86 86
- 0.33418 1 2 cbr 210 ------- 0 0.0 2.0 86 86
r 0.33461 1 2 cbr 210 ------- 0 0.0 2.0 83 83
+ 0.3375 0 1 cbr 210 ------- 0 0.0 2.0 90 90
- 0.3375 0 1 cbr 210 ------- 0 0.0 2.0 90 90
r 0.33793 0 1 cbr 210 ------- 0 0.0 2.0 87 87
+ 0.33793 1 2 cbr 210 ------- 0 0.0 2.0 87 87
- 0.33793 1 2 cbr 210 ------- 0 0.0 2.0 87 87
r 0.33836 1 2 cbr 210 ------- 0 0.0 2.0 84 84
+ 0.34125 0 1 cbr 210 ------- 0 0.0 2.0 91 91
- 0.34125 0 1 cbr 210 ------- 0 0.0 2.0 91 91
r 0.34168 0 1 cbr 210 ------- 0 0.0 2.0 88 88
+ 0.34168 1 2 cbr 210 ------- 0 0.0 2.0 88 88
- 0.34168 1 2 cbr 210 ------- 0 0.0 2.0 88 88
r 0.34211 1 2 cbr 210 ------- 0 0.0 2.0 85 85
+ 0.345 0 1 cbr 210 ------- 0 0.0 2.0 92 92
- 0.345 0 1 cbr 210 ------- 0 0.0 2.0 92 92
r 0.34543 0 1 cbr 210 ------- 0 0.0 2.0 89 89
+ 0.34543 1 2 cbr 210 ------- 0 0.0 2.0 89 89
- 0.34543 1 2 cbr 210 ------- 0 0.0 2.0 89 89
r 0.34586 1 2 cbr 210 ------- 0 0.0 2.0 86 86
+ 0.34875 0 1 cbr 210 ------- 0 0.0 2.0 93 93
- 0.34875 0 1 cbr 210 ------- 0 0.0 2.0 93 93
r 0.34918 0 1 cbr 210 ------- 0 0.0 2.0 90 90
+ 0.34918 1 2 cbr 210 ------- 0 0.0 2.0 90 90
- 0.34918 1 2 cbr 210 ------- 0 0.0 2.0 90 90
r 0.34961 1 2 cbr 210 ------- 0 0.0 2.0 87 87
+ 0.3525 0 1 cbr 210 ------- 0 0.0 2.0 94 94
- 0.3525 0 1 cbr 210 ------- 0 0.0 2.0 94 94
r 0.35293 0 1 cbr 210 ------- 0 0.0 2.0 91 91
+ 0.35293 1 2 cbr 210 ------- 0 0.0 2.0 91 91
- 0.35293 1 2 cbr 210 ------- 0 0.0 2.0 91 91
r 0.35336 1 2 cbr 210 ------- 0 0.0 2.0 88 88
+ 0.35625 0 1 cbr 210 ------- 0 0.0 2.0 95 95
- 0.35625 0 1 cbr 210 ------- 0 0.0 2.0 95 95
r 0.35668 0 1 cbr 210 ------- 0 0.0 2.0 92 92
+ 0.35668 1 2 cbr 210 ------- 0 0.0 2.0 92 92
- 0.35668 1 2 cbr 210 ------- 0 0.0 2.0 92 92
r 0.35711 1 2 cbr 210 ------- 0 0.0 2.0 89 89
+ 0.36 0 1 cbr 210 ------- 0 0.0 2.0 96 96
- 0.36 0 1 cbr 210 ------- 0 0.0 2.0 96 96
r 0.36043 0 1 cbr 210 ------- 0 0.0 2.0 93 93
+ 0.36043 1 2 cbr 210 ------- 0 0.0 2.0 93 93
- 0.36043 1 2 cbr 210 ------- 0 0.0 2.0 93 93
r 0.36086 1 2 cbr 210 ------- 0 0.0 2.0 90 90
+ 0.36375 0 1 cbr 210 ------- 0 0.0 2.0 97 97
- 0.36375 0 1 cbr 210 ------- 0 0.0 2.0 97 97
r 0.36418 0 1 cbr 210 ------- 0 0.0 2.0 94 94
+ 0.36418 1 2 cbr 210 ------- 0 0.0 2.0 94 94
- 0.36418 1 2 cbr 210 ------- 0 0.0 2.0 94 94
r 0.36461 1 2 cbr 210 ------- 0 0.0 2.0 91 91
+ 0.3675 0 1 cbr 210 ------- 0 0.0 2.0 98 98
- 0.3675 0 1 cbr 210 ------- 0 0.0 2.0 98 98
r 0.36793 0 1 cbr 210 ------- 0 0.0 2.0 95 95
+ 0.36793 1 2 cbr 210 ------- 0 0.0 2.0 95 95
- 0.36793 1 2 cbr 210 ------- 0 0.0 2.0 95 95
r 0.36836 1 2 cbr 210 ------- 0 0.0 2.0 92 92
+ 0.37125 0 1 cbr 210 ------- 0 0.0 2.0 99 99
- 0.37125 0 1 cbr 210 ------- 0 0.0 2.0 99 99
r 0.37168 0 1 cbr 210 ------- 0 0.0 2.0 96 96
+ 0.37168 1 2 cbr 210 ------- 0 0.0 2.0 96 96
- 0.37168 1 2 cbr 210 ------- 0 0.0 2.0 96 96
r 0.37211 1 2 cbr 210 ------- 0 0.0 2.0 93 93
+ 0.375 0 1 cbr 210 ------- 0 0.0 2.0 100 100
- 0.375 0 1 cbr 210 ------- 0 0.0 2.0 100 100
r 0.37543 0 1 cbr 210 ------- 0 0.0 2.0 97 97
+ 0.37543 1 2 cbr 210 ------- 0 0.0 2.0 97 97
- 0.37543 1 2 cbr 210 ------- 0 0.0 2.0 97 97
r 0.37586 1 2 cbr 210 ------- 0 0.0 2.0 94 94
+ 0.37875 0 1 cbr 210 ------- 0 0.0 2.0 101 101
- 0.37875 0 1 cbr 210 ------- 0 0.0 2.0 101 101
r 0.37918 0 1 cbr 210 ------- 0 0.0 2.0 98 98
+ 0.37918 1 2 cbr 210 ------- 0 0.0 2.0 98 98
- 0.37918 1 2 cbr 210 ------- 0 0.0 2.0 98 98
r 0.37961 1 2 cbr 210 ------- 0 0.0 2.0 95 95
+ 0.3825 0 1 cbr 210 ------- 0 0.0 2.0 102 102
- 0.3825 0 1 cbr 210 ------- 0 0.0 2.0 102 102
r 0.38293 0 1 cbr 210 ------- 0 0.0 2.0 99 99
+ 0.38293 1 2 cbr 210 ------- 0 0.0 2.0 99 99
- 0.38293 1 2 cbr 210 ------- 0 0.0 2.0 99 99
r 0.38336 1 2 cbr 210 ------- 0 0.0 2.0 96 96
+ 0.38625 0 1 cbr 210 ------- 0 0.0 2.0 103 103
- 0.38625 0 1 cbr 210 ------- 0 0.0 2.0 103 103
r 0.38668 0 1 cbr 210 ------- 0 0.0 2.0 100 100
+ 0.38668 1 2 cbr 210 ------- 0 0.0 2.0 100 100
- 0.38668 1 2 cbr 210 ------- 0 0.0 2.0 100 100
r 0.38711 1 2 cbr 210 ------- 0 0.0 2.0 97 97
+ 0.39 0 1 cbr 210 ------- 0 0.0 2.0 104 104
- 0.39 0 1 cbr 210 ------- 0 0.0 2.0 104 104
r 0.39043 0 1 cbr 210 ------- 0 0.0 2.0 101 101
+ 0.39043 1 2 cbr 210 ------- 0 0.0 2.0 101 101
- 0.39043 1 2 cbr 210 ------- 0 0.0 2.0 101 101
r 0.39086 1 2 cbr 210 ------- 0 0.0 2.0 98 98
+ 0.39375 0 1 cbr 210 ------- 0 0.0 2.0 105 105
- 0.39375 0 1 cbr 210 ------- 0 0.0 2.0 105 105
r 0.39418 0 1 cbr 210 ------- 0 0.0 2.0 102 102
+ 0.39418 1 2 cbr 210 ------- 0 0.0 2.0 102 102
- 0.39418 1 2 cbr 210 ------- 0 0.0 2.0 102 102
r 0.39461 1 2 cbr 210 ------- 0 0.0 2.0 99 99
+ 0.3975 0 1 cbr 210 ------- 0 0.0 2.0 106 106
- 0.3975 0 1 cbr 210 ------- 0 0.0 2.0 106 106
r 0.39793 0 1 cbr 210 ------- 0 0.0 2.0 103 103
+ 0.39793 1 2 cbr 210 ------- 0 0.0 2.0 103 103
- 0.39793 1 2 cbr 210 ------- 0 0.0 2.0 103 103
r 0.39836 1 2 cbr 210 ------- 0 0.0 2.0 100 100
+ 0.40125 0 1 cbr 210 ------- 0 0.0 2.0 107 107
- 0.40125 0 1 cbr 210 ------- 0 0.0 2.0 107 107
r 0.40168 0 1 cbr 210 ------- 0 0.0 2.0 104 104
+ 0.40168 1 2 cbr 210 ------- 0 0.0 2.0 104 104
- 0.40168 1 2 cbr 210 ------- 0 0.0 2.0 104 104
r 0.40211 1 2 cbr 210 ------- 0 0.0 2.0 101 101
+ 0.405 0 1 cbr 210 ------- 0 0.0 2.0 108 108
- 0.405 0 1 cbr 210 ------- 0 0.0 2.0 108 108
r 0.40543 0 1 cbr 210 ------- 0 0.0 2.0 105 105
+ 0.40543 1 2 cbr 210 ------- 0 0.0 2.0 105 105
- 0.40543 1 2 cbr 210 ------- 0 0.0 2.0 105 105
r 0.40586 1 2 cbr 210 ------- 0 0.0 2.0 102 102
+ 0.40875 0 1 cbr 210 ------- 0 0.0 2.0 109 109
- 0.40875 0 1 cbr 210 ------- 0 0.0 2.0 109 109
r 0.40918 0 1 cbr 210 ------- 0 0.0 2.0 106 106
+ 0.40918 1 2 cbr 210 ------- 0 0.0 2.0 106 106
- 0.40918 1 2 cbr 210 ------- 0 0.0 2.0 106 106
r 0.40961 1 2 cbr 210 ------- 0 0.0 2.0 103 103
+ 0.4125 0 1 cbr 210 ------- 0 0.0 2.0 110 110
- 0.4125 0 1 cbr 210 ------- 0 0.0 2.0 110 110
r 0.41293 0 1 cbr 210 ------- 0 0.0 2.0 107 107
+ 0.41293 1 2 cbr 210 ------- 0 0.0 2.0 107 107
- 0.41293 1 2 cbr 210 ------- 0 0.0 2.0 107 107
r 0.41336 1 2 cbr 210 ------- 0 0.0 2.0 104 104
+ 0.41625 0 1 cbr 210 ------- 0 0.0 2.0 111 111
- 0.41625 0 1 cbr 210 ------- 0 0.0 2.0 111 111
r 0.41668 0 1 cbr 210 ------- 0 0.0 2.0 108 108
+ 0.41668 1 2 cbr 210 ------- 0 0.0 2.0 108 108
- 0.41668 1 2 cbr 210 ------- 0 0.0 2.0 108 108