V -t * -v 1.0a5 -a 0
A -t * -n 1 -p 0 -o 0x7fffffff -c 30 -a 1
A -t * -h 1 -m 1073741823 -s 0
n -t * -a 0 -s 0 -S UP -v circle -c black -i black
n -t * -a 1 -s 1 -S UP -v circle -c black -i black
n -t * -a 2 -s 2 -S UP -v circle -c black -i black
n -t * -a 3 -s 3 -S UP -v circle -c black -i black
l -t * -s 0 -d 1 -S UP -r 1000000 -D 0.01 -c black
l -t * -s 1 -d 2 -S UP -r 1000000 -D 0.01 -c black
l -t * -s 2 -d 3 -S UP -r 1000000 -D 0.01 -c black
l -t * -s 3 -d 0 -S UP -r 1000000 -D 0.01 -c black
+ -t 0.5 -s 0 -d 1 -p cbr -e 500 -c 0 -i 0 -a 0 -x {0.0 1.0 0 ------- null}
- -t 0.5 -s 0 -d 1 -p cbr -e 500 -c 0 -i 0 -a 0 -x {0.0 1.0 0 ------- null}
h -t 0.5 -s 0 -d 1 -p cbr -e 500 -c 0 -i 0 -a 0 -x {0.0 1.0 -1 ------- null}
+ -t 0.5 -s 1 -d 2 -p cbr -e 500 -c 0 -i 1 -a 0 -x {1.1 2.0 0 ------- null}
- -t 0.5 -s 1 -d 2 -p cbr -e 500 -c 0 -i 1 -a 0 -x {1.1 2.0 0 ------- null}
h -t 0.5 -s 1 -d 2 -p cbr -e 500 -c 0 -i 1 -a 0 -x {1.1 2.0 -1 ------- null}
+ -t 0.5 -s 2 -d 3 -p cbr -e 500 -c 0 -i 2 -a 0 -x {2.1 3.0 0 ------- null}
- -t 0.5 -s 2 -d 3 -p cbr -e 500 -c 0 -i 2 -a 0 -x {2.1 3.0 0 ------- null}
h -t 0.5 -s 2 -d 3 -p cbr -e 500 -c 0 -i 2 -a 0 -x {2.1 3.0 -1 ------- null}
+ -t 0.5 -s 3 -d 0 -p cbr -e 500 -c 0 -i 3 -a 0 -x {3.1 0.1 0 ------- null}
- -t 0.5 -s 3 -d 0 -p cbr -e 500 -c 0 -i 3 -a 0 -x {3.1 0.1 0 ------- null}
h -t 0.5 -s 3 -d 0 -p cbr -e 500 -c 0 -i 3 -a 0 -x {3.1 0.1 -1 ------- null}
+ -t 0.511904761904762 -s 0 -d 1 -p cbr -e 500 -c 0 -i 4 -a 0 -x {0.0 1.0 1 ------- null}
- -t 0.511904761904762 -s 0 -d 1 -p cbr -e 500 -c 0 -i 4 -a 0 -x {0.0 1.0 1 ------- null}
h -t 0.511904761904762 -s 0 -d 1 -p cbr -e 500 -c 0 -i 4 -a 0 -x {0.0 1.0 -1 ------- null}
+ -t 0.511904761904762 -s 1 -d 2 -p cbr -e 500 -c 0 -i 5 -a 0 -x {1.1 2.0 1 ------- null}
- -t 0.511904761904762 -s 1 -d 2 -p cbr -e 500 -c 0 -i 5 -a 0 -x {1.1 2.0 1 ------- null}
h -t 0.511904761904762 -s 1 -d 2 -p cbr -e 500 -c 0 -i 5 -a 0 -x {1.1 2.0 -1 ------- null}
+ -t 0.511904761904762 -s 2 -d 3 -p cbr -e 500 -c 0 -i 6 -a 0 -x {2.1 3.0 1 ------- null}
- -t 0.511904761904762 -s 2 -d 3 -p cbr -e 500 -c 0 -i 6 -a 0 -x {2.1 3.0 1 ------- null}
h -t 0.511904761904762 -s 2 -d 3 -p cbr -e 500 -c 0 -i 6 -a 0 -x {2.1 3.0 -1 ------- null}
+ -t 0.511904761904762 -s 3 -d 0 -p cbr -e 500 -c 0 -i 7 -a 0 -x {3.1 0.1 1 ------- null}
- -t 0.511904761904762 -s 3 -d 0 -p cbr -e 500 -c 0 -i 7 -a 0 -x {3.1 0.1 1 ------- null}
h -t 0.511904761904762 -s 3 -d 0 -p cbr -e 500 -c 0 -i 7 -a 0 -x {3.1 0.1 -1 ------- null}
r -t 0.514 -s 0 -d 1 -p cbr -e 500 -c 0 -i 0 -a 0 -x {0.0 1.0 0 ------- null}
r -t 0.514 -s 1 -d 2 -p cbr -e 500 -c 0 -i 1 -a 0 -x {1.1 2.0 0 ------- null}
r -t 0.514 -s 2 -d 3 -p cbr -e 500 -c 0 -i 2 -a 0 -x {2.1 3.0 0 ------- null}
r -t 0.514 -s 3 -d 0 -p cbr -e 500 -c 0 -i 3 -a 0 -x {3.1 0.1 0 ------- null}
+ -t 0.523809523809524 -s 0 -d 1 -p cbr -e 500 -c 0 -i 8 -a 0 -x {0.0 1.0 2 ------- null}
- -t 0.523809523809524 -s 0 -d 1 -p cbr -e 500 -c 0 -i 8 -a 0 -x {0.0 1.0 2 ------- null}
h -t 0.523809523809524 -s 0 -d 1 -p cbr -e 500 -c 0 -i 8 -a 0 -x {0.0 1.0 -1 ------- null}
+ -t 0.523809523809524 -s 1 -d 2 -p cbr -e 500 -c 0 -i 9 -a 0 -x {1.1 2.0 2 ------- null}
- -t 0.523809523809524 -s 1 -d 2 -p cbr -e 500 -c 0 -i 9 -a 0 -x {1.1 2.0 2 ------- null}
h -t 0.523809523809524 -s 1 -d 2 -p cbr -e 500 -c 0 -i 9 -a 0 -x {1.1 2.0 -1 ------- null}
+ -t 0.523809523809524 -s 2 -d 3 -p cbr -e 500 -c 0 -i 10 -a 0 -x {2.1 3.0 2 ------- null}
- -t 0.523809523809524 -s 2 -d 3 -p cbr -e 500 -c 0 -i 10 -a 0 -x {2.1 3.0 2 ------- null}
h -t 0.523809523809524 -s 2 -d 3 -p cbr -e 500 -c 0 -i 10 -a 0 -x {2.1 3.0 -1 ------- null}
+ -t 0.523809523809524 -s 3 -d 0 -p cbr -e 500 -c 0 -i 11 -a 0 -x {3.1 0.1 2 ------- null}
- -t 0.523809523809524 -s 3 -d 0 -p cbr -e 500 -c 0 -i 11 -a 0 -x {3.1 0.1 2 ------- null}
h -t 0.523809523809524 -s 3 -d 0 -p cbr -e 500 -c 0 -i 11 -a 0 -x {3.1 0.1 -1 ------- null}
r -t 0.525904761904762 -s 0 -d 1 -p cbr -e 500 -c 0 -i 4 -a 0 -x {0.0 1.0 1 ------- null}
r -t 0.525904761904762 -s 1 -d 2 -p cbr -e 500 -c 0 -i 5 -a 0 -x {1.1 2.0 1 ------- null}
r -t 0.525904761904762 -s 2 -d 3 -p cbr -e 500 -c 0 -i 6 -a 0 -x {2.1 3.0 1 ------- null}
r -t 0.525904761904762 -s 3 -d 0 -p cbr -e 500 -c 0 -i 7 -a 0 -x {3.1 0.1 1 ------- null}
+ -t 0.535714285714286 -s 0 -d 1 -p cbr -e 500 -c 0 -i 12 -a 0 -x {0.0 1.0 3 ------- null}
- -t 0.535714285714286 -s 0 -d 1 -p cbr -e 500 -c 0 -i 12 -a 0 -x {0.0 1.0 3 ------- null}
h -t 0.535714285714286 -s 0 -d 1 -p cbr -e 500 -c 0 -i 12 -a 0 -x {0.0 1.0 -1 ------- null}
+ -t 0.535714285714286 -s 1 -d 2 -p cbr -e 500 -c 0 -i 13 -a 0 -x {1.1 2.0 3 ------- null}
- -t 0.535714285714286 -s 1 -d 2 -p cbr -e 500 -c 0 -i 13 -a 0 -x {1.1 2.0 3 ------- null}
h -t 0.535714285714286 -s 1 -d 2 -p cbr -e 500 -c 0 -i 13 -a 0 -x {1.1 2.0 -1 ------- null}
+ -t 0.535714285714286 -s 2 -d 3 -p cbr -e 500 -c 0 -i 14 -a 0 -x {2.1 3.0 3 ------- null}
- -t 0.535714285714286 -s 2 -d 3 -p cbr -e 500 -c 0 -i 14 -a 0 -x {2.1 3.0 3 ------- null}
h -t 0.535714285714286 -s 2 -d 3 -p cbr -e 500 -c 0 -i 14 -a 0 -x {2.1 3.0 -1 ------- null}
+ -t 0.535714285714286 -s 3 -d 0 -p cbr -e 500 -c 0 -i 15 -a 0 -x {3.1 0.1 3 ------- null}
- -t 0.535714285714286 -s 3 -d 0 -p cbr -e 500 -c 0 -i 15 -a 0 -x {3.1 0.1 3 ------- null}
h -t 0.535714285714286 -s 3 -d 0 -p cbr -e 500 -c 0 -i 15 -a 0 -x {3.1 0.1 -1 ------- null}
r -t 0.537809523809524 -s 0 -d 1 -p cbr -e 500 -c 0 -i 8 -a 0 -x {0.0 1.0 2 ------- null}
r -t 0.537809523809524 -s 1 -d 2 -p cbr -e 500 -c 0 -i 9 -a 0 -x {1.1 2.0 2 ------- null}
r -t 0.537809523809524 -s 2 -d 3 -p cbr -e 500 -c 0 -i 10 -a 0 -x {2.1 3.0 2 ------- null}
r -t 0.537809523809524 -s 3 -d 0 -p cbr -e 500 -c 0 -i 11 -a 0 -x {3.1 0.1 2 ------- null}
+ -t 0.547619047619047 -s 0 -d 1 -p cbr -e 500 -c 0 -i 16 -a 0 -x {0.0 1.0 4 ------- null}
- -t 0.547619047619047 -s 0 -d 1 -p cbr -e 500 -c 0 -i 16 -a 0 -x {0.0 1.0 4 ------- null}
h -t 0.547619047619047 -s 0 -d 1 -p cbr -e 500 -c 0 -i 16 -a 0 -x {0.0 1.0 -1 ------- null}
+ -t 0.547619047619047 -s 1 -d 2 -p cbr -e 500 -c 0 -i 17 -a 0 -x {1.1 2.0 4 ------- null}
- -t 0.547619047619047 -s 1 -d 2 -p cbr -e 500 -c 0 -i 17 -a 0 -x {1.1 2.0 4 ------- null}
h -t 0.547619047619047 -s 1 -d 2 -p cbr -e 500 -c 0 -i 17 -a 0 -x {1.1 2.0 -1 ------- null}
+ -t 0.547619047619047 -s 2 -d 3 -p cbr -e 500 -c 0 -i 18 -a 0 -x {2.1 3.0 4 ------- null}
- -t 0.547619047619047 -s 2 -d 3 -p cbr -e 500 -c 0 -i 18 -a 0 -x {2.1 3.0 4 ------- null}
h -t 0.547619047619047 -s 2 -d 3 -p cbr -e 500 -c 0 -i 18 -a 0 -x {2.1 3.0 -1 ------- null}
+ -t 0.547619047619047 -s 3 -d 0 -p cbr -e 500 -c 0 -i 19 -a 0 -x {3.1 0.1 4 ------- null}
- -t 0.547619047619047 -s 3 -d 0 -p cbr -e 500 -c 0 -i 19 -a 0 -x {3.1 0.1 4 ------- null}
h -t 0.547619047619047 -s 3 -d 0 -p cbr -e 500 -c 0 -i 19 -a 0 -x {3.1 0.1 -1 ------- null}
r -t 0.549714285714286 -s 0 -d 1 -p cbr -e 500 -c 0 -i 12 -a 0 -x {0.0 1.0 3 ------- null}
r -t 0.549714285714286 -s 1 -d 2 -p cbr -e 500 -c 0 -i 13 -a 0 -x {1.1 2.0 3 ------- null}
r -t 0.549714285714286 -s 2 -d 3 -p cbr -e 500 -c 0 -i 14 -a 0 -x {2.1 3.0 3 ------- null}
r -t 0.549714285714286 -s 3 -d 0 -p cbr -e 500 -c 0 -i 15 -a 0 -x {3.1 0.1 3 ------- null}
+ -t 0.559523809523809 -s 0 -d 1 -p cbr -e 500 -c 0 -i 20 -a 0 -x {0.0 1.0 5 ------- null}
- -t 0.559523809523809 -s 0 -d 1 -p cbr -e 500 -c 0 -i 20 -a 0 -x {0.0 1.0 5 ------- null}
h -t 0.559523809523809 -s 0 -d 1 -p cbr -e 500 -c 0 -i 20 -a 0 -x {0.0 1.0 -1 ------- null}
+ -t 0.559523809523809 -s 1 -d 2 -p cbr -e 500 -c 0 -i 21 -a 0 -x {1.1 2.0 5 ------- null}
- -t 0.559523809523809 -s 1 -d 2 -p cbr -e 500 -c 0 -i 21 -a 0 -x {1.1 2.0 5 ------- null}
h -t 0.559523809523809 -s 1 -d 2 -p cbr -e 500 -c 0 -i 21 -a 0 -x {1.1 2.0 -1 ------- null}
+ -t 0.559523809523809 -s 2 -d 3 -p cbr -e 500 -c 0 -i 22 -a 0 -x {2.1 3.0 5 ------- null}
- -t 0.559523809523809 -s 2 -d 3 -p cbr -e 500 -c 0 -i 22 -a 0 -x {2.1 3.0 5 ------- null}
h -t 0.559523809523809 -s 2 -d 3 -p cbr -e 500 -c 0 -i 22 -a 0 -x {2.1 3.0 -1 ------- null}
+ -t 0.559523809523809 -s 3 -d 0 -p cbr -e 500 -c 0 -i 23 -a 0 -x {3.1 0.1 5 ------- null}
- -t 0.559523809523809 -s 3 -d 0 -p cbr -e 500 -c 0 -i 23 -a 0 -x {3.1 0.1 5 ------- null}
h -t 0.559523809523809 -s 3 -d 0 -p cbr -e 500 -c 0 -i 23 -a 0 -x {3.1 0.1 -1 ------- null}
r -t 0.561619047619047 -s 0 -d 1 -p cbr -e 500 -c 0 -i 16 -a 0 -x {0.0 1.0 4 ------- null}
r -t 0.561619047619047 -s 1 -d 2 -p cbr -e 500 -c 0 -i 17 -a 0 -x {1.1 2.0 4 ------- null}
r -t 0.561619047619047 -s 2 -d 3 -p cbr -e 500 -c 0 -i 18 -a 0 -x {2.1 3.0 4 ------- null}
r -t 0.561619047619047 -s 3 -d 0 -p cbr -e 500 -c 0 -i 19 -a 0 -x {3.1 0.1 4 ------- null}
+ -t 0.571428571428571 -s 0 -d 1 -p cbr -e 500 -c 0 -i 24 -a 0 -x {0.0 1.0 6 ------- null}
- -t 0.571428571428571 -s 0 -d 1 -p cbr -e 500 -c 0 -i 24 -a 0 -x {0.0 1.0 6 ------- null}
h -t 0.571428571428571 -s 0 -d 1 -p cbr -e 500 -c 0 -i 24 -a 0 -x {0.0 1.0 -1 ------- null}
+ -t 0.571428571428571 -s 1 -d 2 -p cbr -e 500 -c 0 -i 25 -a 0 -x {1.1 2.0 6 ------- null}
- -t 0.571428571428571 -s 1 -d 2 -p cbr -e 500 -c 0 -i 25 -a 0 -x {1.1 2.0 6 ------- null}
h -t 0.571428571428571 -s 1 -d 2 -p cbr -e 500 -c 0 -i 25 -a 0 -x {1.1 2.0 -1 ------- null}
+ -t 0.571428571428571 -s 2 -d 3 -p cbr -e 500 -c 0 -i 26 -a 0 -x {2.1 3.0 6 ------- null}
- -t 0.571428571428571 -s 2 -d 3 -p cbr -e 500 -c 0 -i 26 -a 0 -x {2.1 3.0 6 ------- null}
h -t 0.571428571428571 -s 2 -d 3 -p cbr -e 500 -c 0 -i 26 -a 0 -x {2.1 3.0 -1 ------- null}
+ -t 0.571428571428571 -s 3 -d 0 -p cbr -e 500 -c 0 -i 27 -a 0 -x {3.1 0.1 6 ------- null}
- -t 0.571428571428571 -s 3 -d 0 -p cbr -e 500 -c 0 -i 27 -a 0 -x {3.1 0.1 6 ------- null}
h -t 0.571428571428571 -s 3 -d 0 -p cbr -e 500 -c 0 -i 27 -a 0 -x {3.1 0.1 -1 ------- null}
r -t 0.573523809523809 -s 0 -d 1 -p cbr -e 500 -c 0 -i 20 -a 0 -x {0.0 1.0 5 ------- null}
r -t 0.573523809523809 -s 1 -d 2 -p cbr -e 500 -c 0 -i 21 -a 0 -x {1.1 2.0 5 ------- null}
r -t 0.573523809523809 -s 2 -d 3 -p cbr -e 500 -c 0 -i 22 -a 0 -x {2.1 3.0 5 ------- null}
r -t 0.573523809523809 -s 3 -d 0 -p cbr -e 500 -c 0 -i 23 -a 0 -x {3.1 0.1 5 ------- null}
+ -t 0.583333333333333 -s 0 -d 1 -p cbr -e 500 -c 0 -i 28 -a 0 -x {0.0 1.0 7 ------- null}
- -t 0.583333333333333 -s 0 -d 1 -p cbr -e 500 -c 0 -i 28 -a 0 -x {0.0 1.0 7 ------- null}
h -t 0.583333333333333 -s 0 -d 1 -p cbr -e 500 -c 0 -i 28 -a 0 -x {0.0 1.0 -1 ------- null}
+ -t 0.583333333333333 -s 1 -d 2 -p cbr -e 500 -c 0 -i 29 -a 0 -x {1.1 2.0 7 ------- null}
- -t 0.583333333333333 -s 1 -d 2 -p cbr -e 500 -c 0 -i 29 -a 0 -x {1.1 2.0 7 ------- null}
h -t 0.583333333333333 -s 1 -d 2 -p cbr -e 500 -c 0 -i 29 -a 0 -x {1.1 2.0 -1 ------- null}
+ -t 0.583333333333333 -s 2 -d 3 -p cbr -e 500 -c 0 -i 30 -a 0 -x {2.1 3.0 7 ------- null}
- -t 0.583333333333333 -s 2 -d 3 -p cbr -e 500 -c 0 -i 30 -a 0 -x {2.1 3.0 7 ------- null}
h -t 0.583333333333333 -s 2 -d 3 -p cbr -e 500 -c 0 -i 30 -a 0 -x {2.1 3.0 -1 ------- null}
+ -t 0.583333333333333 -s 3 -d 0 -p cbr -e 500 -c 0 -i 31 -a 0 -x {3.1 0.1 7 ------- null}
- -t 0.583333333333333 -s 3 -d 0 -p cbr -e 500 -c 0 -i 31 -a 0 -x {3.1 0.1 7 ------- null}
h -t 0.583333333333333 -s 3 -d 0 -p cbr -e 500 -c 0 -i 31 -a 0 -x {3.1 0.1 -1 ------- null}
r -t 0.585428571428571 -s 0 -d 1 -p cbr -e 500 -c 0 -i 24 -a 0 -x {0.0 1.0 6 ------- null}
r -t 0.585428571428571 -s 1 -d 2 -p cbr -e 500 -c 0 -i 25 -a 0 -x {1.1 2.0 6 ------- null}
r -t 0.585428571428571 -s 2 -d 3 -p cbr -e 500 -c 0 -i 26 -a 0 -x {2.1 3.0 6 ------- null}
r -t 0.585428571428571 -s 3 -d 0 -p cbr -e 500 -c 0 -i 27 -a 0 -x {3.1 0.1 6 ------- null}
+ -t 0.595238095238095 -s 0 -d 1 -p cbr -e 500 -c 0 -i 32 -a 0 -x {0.0 1.0 8 ------- null}
- -t 0.595238095238095 -s 0 -d 1 -p cbr -e 500 -c 0 -i 32 -a 0 -x {0.0 1.0 8 ------- null}
h -t 0.595238095238095 -s 0 -d 1 -p cbr -e 500 -c 0 -i 32 -a 0 -x {0.0 1.0 -1 ------- null}
+ -t 0.595238095238095 -s 1 -d 2 -p cbr -e 500 -c 0 -i 33 -a 0 -x {1.1 2.0 8 ------- null}
- -t 0.595238095238095 -s 1 -d 2 -p cbr -e 500 -c 0 -i 33 -a 0 -x {1.1 2.0 8 ------- null}
h -t 0.595238095238095 -s 1 -d 2 -p cbr -e 500 -c 0 -i 33 -a 0 -x {1.1 2.0 -1 ------- null}
+ -t 0.595238095238095 -s 2 -d 3 -p cbr -e 500 -c 0 -i 34 -a 0 -x {2.1 3.0 8 ------- null}
- -t 0.595238095238095 -s 2 -d 3 -p cbr -e 500 -c 0 -i 34 -a 0 -x {2.1 3.0 8 ------- null}
h -t 0.595238095238095 -s 2 -d 3 -p cbr -e 500 -c 0 -i 34 -a 0 -x {2.1 3.0 -1 ------- null}
+ -t 0.595238095238095 -s 3 -d 0 -p cbr -e 500 -c 0 -i 35 -a 0 -x {3.1 0.1 8 ------- null}
- -t 0.595238095238095 -s 3 -d 0 -p cbr -e 500 -c 0 -i 35 -a 0 -x {3.1 0.1 8 ------- null}
h -t 0.595238095238095 -s 3 -d 0 -p cbr -e 500 -c 0 -i 35 -a 0 -x {3.1 0.1 -1 ------- null}
r -t 0.597333333333333 -s 0 -d 1 -p cbr -e 500 -c 0 -i 28 -a 0 -x {0.0 1.0 7 ------- null}
r -t 0.597333333333333 -s 1 -d 2 -p cbr -e 500 -c 0 -i 29 -a 0 -x {1.1 2.0 7 ------- null}
r -t 0.597333333333333 -s 2 -d 3 -p cbr -e 500 -c 0 -i 30 -a 0 -x {2.1 3.0 7 ------- null}
r -t 0.597333333333333 -s 3 -d 0 -p cbr -e 500 -c 0 -i 31 -a 0 -x {3.1 0.1 7 ------- null}
+ -t 0.607142857142857 -s 0 -d 1 -p cbr -e 500 -c 0 -i 36 -a 0 -x {0.0 1.0 9 ------- null}
- -t 0.607142857142857 -s 0 -d 1 -p cbr -e 500 -c 0 -i 36 -a 0 -x {0.0 1.0 9 ------- null}
h -t 0.607142857142857 -s 0 -d 1 -p cbr -e 500 -c 0 -i 36 -a 0 -x {0.0 1.0 -1 ------- null}
+ -t 0.607142857142857 -s 1 -d 2 -p cbr -e 500 -c 0 -i 37 -a 0 -x {1.1 2.0 9 ------- null}
- -t 0.607142857142857 -s 1 -d 2 -p cbr -e 500 -c 0 -i 37 -a 0 -x {1.1 2.0 9 ------- null}
h -t 0.607142857142857 -s 1 -d 2 -p cbr -e 500 -c 0 -i 37 -a 0 -x {1.1 2.0 -1 ------- null}
+ -t 0.607142857142857 -s 2 -d 3 -p cbr -e 500 -c 0 -i 38 -a 0 -x {2.1 3.0 9 ------- null}
- -t 0.607142857142857 -s 2 -d 3 -p cbr -e 500 -c 0 -i 38 -a 0 -x {2.1 3.0 9 ------- null}
h -t 0.607142857142857 -s 2 -d 3 -p cbr -e 500 -c 0 -i 38 -a 0 -x {2.1 3.0 -1 ------- null}
+ -t 0.607142857142857 -s 3 -d 0 -p cbr -e 500 -c 0 -i 39 -a 0 -x {3.1 0.1 9 ------- null}
- -t 0.607142857142857 -s 3 -d 0 -p cbr -e 500 -c 0 -i 39 -a 0 -x {3.1 0.1 9 ------- null}
h -t 0.607142857142857 -s 3 -d 0 -p cbr -e 500 -c 0 -i 39 -a 0 -x {3.1 0.1 -1 ------- null}
r -t 0.609238095238095 -s 0 -d 1 -p cbr -e 500 -c 0 -i 32 -a 0 -x {0.0 1.0 8 ------- null}
r -t 0.609238095238095 -s 1 -d 2 -p cbr -e 500 -c 0 -i 33 -a 0 -x {1.1 2.0 8 ------- null}
r -t 0.609238095238095 -s 2 -d 3 -p cbr -e 500 -c 0 -i 34 -a 0 -x {2.1 3.0 8 ------- null}
r -t 0.609238095238095 -s 3 -d 0 -p cbr -e 500 -c 0 -i 35 -a 0 -x {3.1 0.1 8 ------- null}
+ -t 0.619047619047619 -s 0 -d 1 -p cbr -e 500 -c 0 -i 40 -a 0 -x {0.0 1.0 10 ------- null}
- -t 0.619047619047619 -s 0 -d 1 -p cbr -e 500 -c 0 -i 40 -a 0 -x {0.0 1.0 10 ------- null}
h -t 0.619047619047619 -s 0 -d 1 -p cbr -e 500 -c 0 -i 40 -a 0 -x {0.0 1.0 -1 ------- null}
+ -t 0.619047619047619 -s 1 -d 2 -p cbr -e 500 -c 0 -i 41 -a 0 -x {1.1 2.0 10 ------- null}
- -t 0.619047619047619 -s 1 -d 2 -p cbr -e 500 -c 0 -i 41 -a 0 -x {1.1 2.0 10 ------- null}
h -t 0.619047619047619 -s 1 -d 2 -p cbr -e 500 -c 0 -i 41 -a 0 -x {1.1 2.0 -1 ------- null}
+ -t 0.619047619047619 -s 2 -d 3 -p cbr -e 500 -c 0 -i 42 -a 0 -x {2.1 3.0 10 ------- null}
- -t 0.619047619047619 -s 2 -d 3 -p cbr -e 500 -c 0 -i 42 -a 0 -x {2.1 3.0 10 ------- null}
h -t 0.619047619047619 -s 2 -d 3 -p cbr -e 500 -c 0 -i 42 -a 0 -x {2.1 3.0 -1 ------- null}
+ -t 0.619047619047619 -s 3 -d 0 -p cbr -e 500 -c 0 -i 43 -a 0 -x {3.1 0.1 10 ------- null}
- -t 0.619047619047619 -s 3 -d 0 -p cbr -e 500 -c 0 -i 43 -a 0 -x {3.1 0.1 10 ------- null}
h -t 0.619047619047619 -s 3 -d 0 -p cbr -e 500 -c 0 -i 43 -a 0 -x {3.1 0.1 -1 ------- null}
r -t 0.621142857142857 -s 0 -d 1 -p cbr -e 500 -c 0 -i 36 -a 0 -x {0.0 1.0 9 ------- null}
r -t 0.621142857142857 -s 1 -d 2 -p cbr -e 500 -c 0 -i 37 -a 0 -x {1.1 2.0 9 ------- null}
r -t 0.621142857142857 -s 2 -d 3 -p cbr -e 500 -c 0 -i 38 -a 0 -x {2.1 3.0 9 ------- null}
r -t 0.621142857142857 -s 3 -d 0 -p cbr -e 500 -c 0 -i 39 -a 0 -x {3.1 0.1 9 ------- null}
+ -t 0.63095238095238 -s 0 -d 1 -p cbr -e 500 -c 0 -i 44 -a 0 -x {0.0 1.0 11 ------- null}
- -t 0.63095238095238 -s 0 -d 1 -p cbr -e 500 -c 0 -i 44 -a 0 -x {0.0 1.0 11 ------- null}
h -t 0.63095238095238 -s 0 -d 1 -p cbr -e 500 -c 0 -i 44 -a 0 -x {0.0 1.0 -1 ------- null}
+ -t 0.63095238095238 -s 1 -d 2 -p cbr -e 500 -c 0 -i 45 -a 0 -x {1.1 2.0 11 ------- null}
- -t 0.63095238095238 -s 1 -d 2 -p cbr -e 500 -c 0 -i 45 -a 0 -x {1.1 2.0 11 ------- null}
h -t 0.63095238095238 -s 1 -d 2 -p cbr -e 500 -c 0 -i 45 -a 0 -x {1.1 2.0 -1 ------- null}
+ -t 0.63095238095238 -s 2 -d 3 -p cbr -e 500 -c 0 -i 46 -a 0 -x {2.1 3.0 11 ------- null}
- -t 0.63095238095238 -s 2 -d 3 -p cbr -e 500 -c 0 -i 46 -a 0 -x {2.1 3.0 11 ------- null}
h -t 0.63095238095238 -s 2 -d 3 -p cbr -e 500 -c 0 -i 46 -a 0 -x {2.1 3.0 -1 ------- null}
+ -t 0.63095238095238 -s 3 -d 0 -p cbr -e 500 -c 0 -i 47 -a 0 -x {3.1 0.1 11 ------- null}
- -t 0.63095238095238 -s 3 -d 0 -p cbr -e 500 -c 0 -i 47 -a 0 -x {3.1 0.1 11 ------- null}
h -t 0.63095238095238 -s 3 -d 0 -p cbr -e 500 -c 0 -i 47 -a 0 -x {3.1 0.1 -1 ------- null}
r -t 0.633047619047619 -s 0 -d 1 -p cbr -e 500 -c 0 -i 40 -a 0 -x {0.0 1.0 10 ------- null}
r -t 0.633047619047619 -s 1 -d 2 -p cbr -e 500 -c 0 -i 41 -a 0 -x {1.1 2.0 10 ------- null}
r -t 0.633047619047619 -s 2 -d 3 -p cbr -e 500 -c 0 -i 42 -a 0 -x {2.1 3.0 10 ------- null}
r -t 0.633047619047619 -s 3 -d 0 -p cbr -e 500 -c 0 -i 43 -a 0 -x {3.1 0.1 10 ------- null}
+ -t 0.642857142857142 -s 0 -d 1 -p cbr -e 500 -c 0 -i 48 -a 0 -x {0.0 1.0 12 ------- null}
- -t 0.642857142857142 -s 0 -d 1 -p cbr -e 500 -c 0 -i 48 -a 0 -x {0.0 1.0 12 ------- null}
h -t 0.642857142857142 -s 0 -d 1 -p cbr -e 500 -c 0 -i 48 -a 0 -x {0.0 1.0 -1 ------- null}
+ -t 0.642857142857142 -s 1 -d 2 -p cbr -e 500 -c 0 -i 49 -a 0 -x {1.1 2.0 12 ------- null}
- -t 0.642857142857142 -s 1 -d 2 -p cbr -e 500 -c 0 -i 49 -a 0 -x {1.1 2.0 12 ------- null}
h -t 0.642857142857142 -s 1 -d 2 -p cbr -e 500 -c 0 -i 49 -a 0 -x {1.1 2.0 -1 ------- null}
+ -t 0.642857142857142 -s 2 -d 3 -p cbr -e 500 -c 0 -i 50 -a 0 -x {2.1 3.0 12 ------- null}
- -t 0.642857142857142 -s 2 -d 3 -p cbr -e 500 -c 0 -i 50 -a 0 -x {2.1 3.0 12 ------- null}
h -t 0.642857142857142 -s 2 -d 3 -p cbr -e 500 -c 0 -i 50 -a 0 -x {2.1 3.0 -1 ------- null}
+ -t 0.642857142857142 -s 3 -d 0 -p cbr -e 500 -c 0 -i 51 -a 0 -x {3.1 0.1 12 ------- null}
- -t 0.642857142857142 -s 3 -d 0 -p cbr -e 500 -c 0 -i 51 -a 0 -x {3.1 0.1 12 ------- null}
h -t 0.642857142857142 -s 3 -d 0 -p cbr -e 500 -c 0 -i 51 -a 0 -x {3.1 0.1 -1 ------- null}
r -t 0.64495238095238 -s 0 -d 1 -p cbr -e 500 -c 0 -i 44 -a 0 -x {0.0 1.0 11 ------- null}
r -t 0.64495238095238 -s 1 -d 2 -p cbr -e 500 -c 0 -i 45 -a 0 -x {1.1 2.0 11 ------- null}
r -t 0.64495238095238 -s 2 -d 3 -p cbr -e 500 -c 0 -i 46 -a 0 -x {2.1 3.0 11 ------- null}
r -t 0.64495238095238 -s 3 -d 0 -p cbr -e 500 -c 0 -i 47 -a 0 -x {3.1 0.1 11 ------- null}
+ -t 0.654761904761904 -s 0 -d 1 -p cbr -e 500 -c 0 -i 52 -a 0 -x {0.0 1.0 13 ------- null}
- -t 0.654761904761904 -s 0 -d 1 -p cbr -e 500 -c 0 -i 52 -a 0 -x {0.0 1.0 13 ------- null}
h -t 0.654761904761904 -s 0 -d 1 -p cbr -e 500 -c 0 -i 52 -a 0 -x {0.0 1.0 -1 ------- null}
+ -t 0.654761904761904 -s 1 -d 2 -p cbr -e 500 -c 0 -i 53 -a 0 -x {1.1 2.0 13 ------- null}
- -t 0.654761904761904 -s 1 -d 2 -p cbr -e 500 -c 0 -i 53 -a 0 -x {1.1 2.0 13 ------- null}
h -t 0.654761904761904 -s 1 -d 2 -p cbr -e 500 -c 0 -i 53 -a 0 -x {1.1 2.0 -1 ------- null}
+ -t 0.654761904761904 -s 2 -d 3 -p cbr -e 500 -c 0 -i 54 -a 0 -x {2.1 3.0 13 ------- null}
- -t 0.654761904761904 -s 2 -d 3 -p cbr -e 500 -c 0 -i 54 -a 0 -x {2.1 3.0 13 ------- null}
h -t 0.654761904761904 -s 2 -d 3 -p cbr -e 500 -c 0 -i 54 -a 0 -x {2.1 3.0 -1 ------- null}
+ -t 0.654761904761904 -s 3 -d 0 -p cbr -e 500 -c 0 -i 55 -a 0 -x {3.1 0.1 13 ------- null}
- -t 0.654761904761904 -s 3 -d 0 -p cbr -e 500 -c 0 -i 55 -a 0 -x {3.1 0.1 13 ------- null}
h -t 0.654761904761904 -s 3 -d 0 -p cbr -e 500 -c 0 -i 55 -a 0 -x {3.1 0.1 -1 ------- null}
r -t 0.656857142857142 -s 0 -d 1 -p cbr -e 500 -c 0 -i 48 -a 0 -x {0.0 1.0 12 ------- null}
r -t 0.656857142857142 -s 1 -d 2 -p cbr -e 500 -c 0 -i 49 -a 0 -x {1.1 2.0 12 ------- null}
r -t 0.656857142857142 -s 2 -d 3 -p cbr -e 500 -c 0 -i 50 -a 0 -x {2.1 3.0 12 ------- null}
r -t 0.656857142857142 -s 3 -d 0 -p cbr -e 500 -c 0 -i 51 -a 0 -x {3.1 0.1 12 ------- null}
+ -t 0.666666666666666 -s 0 -d 1 -p cbr -e 500 -c 0 -i 56 -a 0 -x {0.0 1.0 14 ------- null}
- -t 0.666666666666666 -s 0 -d 1 -p cbr -e 500 -c 0 -i 56 -a 0 -x {0.0 1.0 14 ------- null}
h -t 0.666666666666666 -s 0 -d 1 -p cbr -e 500 -c 0 -i 56 -a 0 -x {0.0 1.0 -1 ------- null}
+ -t 0.666666666666666 -s 1 -d 2 -p cbr -e 500 -c 0 -i 57 -a 0 -x {1.1 2.0 14 ------- null}
- -t 0.666666666666666 -s 1 -d 2 -p cbr -e 500 -c 0 -i 57 -a 0 -x {1.1 2.0 14 ------- null}
h -t 0.666666666666666 -s 1 -d 2 -p cbr -e 500 -c 0 -i 57 -a 0 -x {1.1 2.0 -1 ------- null}
+ -t 0.666666666666666 -s 2 -d 3 -p cbr -e 500 -c 0 -i 58 -a 0 -x {2.1 3.0 14 ------- null}
- -t 0.666666666666666 -s 2 -d 3 -p cbr -e 500 -c 0 -i 58 -a 0 -x {2.1 3.0 14 ------- null}
h -t 0.666666666666666 -s 2 -d 3 -p cbr -e 500 -c 0 -i 58 -a 0 -x {2.1 3.0 -1 ------- null}
+ -t 0.666666666666666 -s 3 -d 0 -p cbr -e 500 -c 0 -i 59 -a 0 -x {3.1 0.1 14 ------- null}
- -t 0.666666666666666 -s 3 -d 0 -p cbr -e 500 -c 0 -i 59 -a 0 -x {3.1 0.1 14 ------- null}
h -t 0.666666666666666 -s 3 -d 0 -p cbr -e 500 -c 0 -i 59 -a 0 -x {3.1 0.1 -1 ------- null}
r -t 0.668761904761904 -s 0 -d 1 -p cbr -e 500 -c 0 -i 52 -a 0 -x {0.0 1.0 13 ------- null}
r -t 0.668761904761904 -s 1 -d 2 -p cbr -e 500 -c 0 -i 53 -a 0 -x {1.1 2.0 13 ------- null}
r -t 0.668761904761904 -s 2 -d 3 -p cbr -e 500 -c 0 -i 54 -a 0 -x {2.1 3.0 13 ------- null}
r -t 0.668761904761904 -s 3 -d 0 -p cbr -e 500 -c 0 -i 55 -a 0 -x {3.1 0.1 13 ------- null}
+ -t 0.678571428571428 -s 0 -d 1 -p cbr -e 500 -c 0 -i 60 -a 0 -x {0.0 1.0 15 ------- null}
- -t 0.678571428571428 -s 0 -d 1 -p cbr -e 500 -c 0 -i 60 -a 0 -x {0.0 1.0 15 ------- null}
h -t 0.678571428571428 -s 0 -d 1 -p cbr -e 500 -c 0 -i 60 -a 0 -x {0.0 1.0 -1 ------- null}
+ -t 0.678571428571428 -s 1 -d 2 -p cbr -e 500 -c 0 -i 61 -a 0 -x {1.1 2.0 15 ------- null}
- -t 0.678571428571428 -s 1 -d 2 -p cbr -e 500 -c 0 -i 61 -a 0 -x {1.1 2.0 15 ------- null}
h -t 0.678571428571428 -s 1 -d 2 -p cbr -e 500 -c 0 -i 61 -a 0 -x {1.1 2.0 -1 ------- null}
+ -t 0.678571428571428 -s 2 -d 3 -p cbr -e 500 -c 0 -i 62 -a 0 -x {2.1 3.0 15 ------- null}
- -t 0.678571428571428 -s 2 -d 3 -p cbr -e 500 -c 0 -i 62 -a 0 -x {2.1 3.0 15 ------- null}
h -t 0.678571428571428 -s 2 -d 3 -p cbr -e 500 -c 0 -i 62 -a 0 -x {2.1 3.0 -1 ------- null}
+ -t 0.678571428571428 -s 3 -d 0 -p cbr -e 500 -c 0 -i 63 -a 0 -x {3.1 0.1 15 ------- null}
- -t 0.678571428571428 -s 3 -d 0 -p cbr -e 500 -c 0 -i 63 -a 0 -x {3.1 0.1 15 ------- null}
h -t 0.678571428571428 -s 3 -d 0 -p cbr -e 500 -c 0 -i 63 -a 0 -x {3.1 0.1 -1 ------- null}
r -t 0.680666666666666 -s 0 -d 1 -p cbr -e 500 -c 0 -i 56 -a 0 -x {0.0 1.0 14 ------- null}
r -t 0.680666666666666 -s 1 -d 2 -p cbr -e 500 -c 0 -i 57 -a 0 -x {1.1 2.0 14 ------- null}
r -t 0.680666666666666 -s 2 -d 3 -p cbr -e 500 -c 0 -i 58 -a 0 -x {2.1 3.0 14 ------- null}
r -t 0.680666666666666 -s 3 -d 0 -p cbr -e 500 -c 0 -i 59 -a 0 -x {3.1 0.1 14 ------- null}
+ -t 0.69047619047619 -s 0 -d 1 -p cbr -e 500 -c 0 -i 64 -a 0 -x {0.0 1.0 16 ------- null}
- -t 0.69047619047619 -s 0 -d 1 -p cbr -e 500 -c 0 -i 64 -a 0 -x {0.0 1.0 16 ------- null}
h -t 0.69047619047619 -s 0 -d 1 -p cbr -e 500 -c 0 -i 64 -a 0 -x {0.0 1.0 -1 ------- null}
+ -t 0.69047619047619 -s 1 -d 2 -p cbr -e 500 -c 0 -i 65 -a 0 -x {1.1 2.0 16 ------- null}
- -t 0.69047619047619 -s 1 -d 2 -p cbr -e 500 -c 0 -i 65 -a 0 -x {1.1 2.0 16 ------- null}
h -t 0.69047619047619 -s 1 -d 2 -p cbr -e 500 -c 0 -i 65 -a 0 -x {1.1 2.0 -1 ------- null}
+ -t 0.69047619047619 -s 2 -d 3 -p cbr -e 500 -c 0 -i 66 -a 0 -x {2.1 3.0 16 ------- null}
- -t 0.69047619047619 -s 2 -d 3 -p cbr -e 500 -c 0 -i 66 -a 0 -x {2.1 3.0 16 ------- null}
h -t 0.69047619047619 -s 2 -d 3 -p cbr -e 500 -c 0 -i 66 -a 0 -x {2.1 3.0 -1 ------- null}
+ -t 0.69047619047619 -s 3 -d 0 -p cbr -e 500 -c 0 -i 67 -a 0 -x {3.1 0.1 16 ------- null}
- -t 0.69047619047619 -s 3 -d 0 -p cbr -e 500 -c 0 -i 67 -a 0 -x {3.1 0.1 16 ------- null}
h -t 0.69047619047619 -s 3 -d 0 -p cbr -e 500 -c 0 -i 67 -a 0 -x {3.1 0.1 -1 ------- null}
r -t 0.692571428571428 -s 0 -d 1 -p cbr -e 500 -c 0 -i 60 -a 0 -x {0.0 1.0 15 ------- null}
r -t 0.692571428571428 -s 1 -d 2 -p cbr -e 500 -c 0 -i 61 -a 0 -x {1.1 2.0 15 ------- null}
r -t 0.692571428571428 -s 2 -d 3 -p cbr -e 500 -c 0 -i 62 -a 0 -x {2.1 3.0 15 ------- null}
r -t 0.692571428571428 -s 3 -d 0 -p cbr -e 500 -c 0 -i 63 -a 0 -x {3.1 0.1 15 ------- null}
+ -t 0.702380952380952 -s 0 -d 1 -p cbr -e 500 -c 0 -i 68 -a 0 -x {0.0 1.0 17 ------- null}
- -t 0.702380952380952 -s 0 -d 1 -p cbr -e 500 -c 0 -i 68 -a 0 -x {0.0 1.0 17 ------- null}
h -t 0.702380952380952 -s 0 -d 1 -p cbr -e 500 -c 0 -i 68 -a 0 -x {0.0 1.0 -1 ------- null}
+ -t 0.702380952380952 -s 1 -d 2 -p cbr -e 500 -c 0 -i 69 -a 0 -x {1.1 2.0 17 ------- null}
- -t 0.702380952380952 -s 1 -d 2 -p cbr -e 500 -c 0 -i 69 -a 0 -x {1.1 2.0 17 ------- null}
h -t 0.702380952380952 -s 1 -d 2 -p cbr -e 500 -c 0 -i 69 -a 0 -x {1.1 2.0 -1 ------- null}
+ -t 0.702380952380952 -s 2 -d 3 -p cbr -e 500 -c 0 -i 70 -a 0 -x {2.1 3.0 17 ------- null}
- -t 0.702380952380952 -s 2 -d 3 -p cbr -e 500 -c 0 -i 70 -a 0 -x {2.1 3.0 17 ------- null}
h -t 0.702380952380952 -s 2 -d 3 -p cbr -e 500 -c 0 -i 70 -a 0 -x {2.1 3.0 -1 ------- null}
+ -t 0.702380952380952 -s 3 -d 0 -p cbr -e 500 -c 0 -i 71 -a 0 -x {3.1 0.1 17 ------- null}
- -t 0.702380952380952 -s 3 -d 0 -p cbr -e 500 -c 0 -i 71 -a 0 -x {3.1 0.1 17 ------- null}
h -t 0.702380952380952 -s 3 -d 0 -p cbr -e 500 -c 0 -i 71 -a 0 -x {3.1 0.1 -1 ------- null}
r -t 0.70447619047619 -s 0 -d 1 -p cbr -e 500 -c 0 -i 64 -a 0 -x {0.0 1.0 16 ------- null}
r -t 0.70447619047619 -s 1 -d 2 -p cbr -e 500 -c 0 -i 65 -a 0 -x {1.1 2.0 16 ------- null}
r -t 0.70447619047619 -s 2 -d 3 -p cbr -e 500 -c 0 -i 66 -a 0 -x {2.1 3.0 16 ------- null}
r -t 0.70447619047619 -s 3 -d 0 -p cbr -e 500 -c 0 -i 67 -a 0 -x {3.1 0.1 16 ------- null}
+ -t 0.714285714285714 -s 0 -d 1 -p cbr -e 500 -c 0 -i 72 -a 0 -x {0.0 1.0 18 ------- null}
- -t 0.714285714285714 -s 0 -d 1 -p cbr -e 500 -c 0 -i 72 -a 0 -x {0.0 1.0 18 ------- null}
h -t 0.714285714285714 -s 0 -d 1 -p cbr -e 500 -c 0 -i 72 -a 0 -x {0.0 1.0 -1 ------- null}
+ -t 0.714285714285714 -s 1 -d 2 -p cbr -e 500 -c 0 -i 73 -a 0 -x {1.1 2.0 18 ------- null}
- -t 0.714285714285714 -s 1 -d 2 -p cbr -e 500 -c 0 -i 73 -a 0 -x {1.1 2.0 18 ------- null}
h -t 0.714285714285714 -s 1 -d 2 -p cbr -e 500 -c 0 -i 73 -a 0 -x {1.1 2.0 -1 ------- null}
+ -t 0.714285714285714 -s 2 -d 3 -p cbr -e 500 -c 0 -i 74 -a 0 -x {2.1 3.0 18 ------- null}
- -t 0.714285714285714 -s 2 -d 3 -p cbr -e 500 -c 0 -i 74 -a 0 -x {2.1 3.0 18 ------- null}
h -t 0.714285714285714 -s 2 -d 3 -p cbr -e 500 -c 0 -i 74 -a 0 -x {2.1 3.0 -1 ------- null}
+ -t 0.714285714285714 -s 3 -d 0 -p cbr -e 500 -c 0 -i 75 -a 0 -x {3.1 0.1 18 ------- null}
- -t 0.714285714285714 -s 3 -d 0 -p cbr -e 500 -c 0 -i 75 -a 0 -x {3.1 0.1 18 ------- null}
h -t 0.714285714285714 -s 3 -d 0 -p cbr -e 500 -c 0 -i 75 -a 0 -x {3.1 0.1 -1 ------- null}
r -t 0.716380952380952 -s 0 -d 1 -p cbr -e 500 -c 0 -i 68 -a 0 -x {0.0 1.0 17 ------- null}
r -t 0.716380952380952 -s 1 -d 2 -p cbr -e 500 -c 0 -i 69 -a 0 -x {1.1 2.0 17 ------- null}
r -t 0.716380952380952 -s 2 -d 3 -p cbr -e 500 -c 0 -i 70 -a 0 -x {2.1 3.0 17 ------- null}
r -t 0.716380952380952 -s 3 -d 0 -p cbr -e 500 -c 0 -i 71 -a 0 -x {3.1 0.1 17 ------- null}
+ -t 0.726190476190475 -s 0 -d 1 -p cbr -e 500 -c 0 -i 76 -a 0 -x {0.0 1.0 19 ------- null}
- -t 0.726190476190475 -s 0 -d 1 -p cbr -e 500 -c 0 -i 76 -a 0 -x {0.0 1.0 19 ------- null}
h -t 0.726190476190475 -s 0 -d 1 -p cbr -e 500 -c 0 -i 76 -a 0 -x {0.0 1.0 -1 ------- null}
+ -t 0.726190476190475 -s 1 -d 2 -p cbr -e 500 -c 0 -i 77 -a 0 -x {1.1 2.0 19 ------- null}
- -t 0.726190476190475 -s 1 -d 2 -p cbr -e 500 -c 0 -i 77 -a 0 -x {1.1 2.0 19 ------- null}
h -t 0.726190476190475 -s 1 -d 2 -p cbr -e 500 -c 0 -i 77 -a 0 -x {1.1 2.0 -1 ------- null}
+ -t 0.726190476190475 -s 2 -d 3 -p cbr -e 500 -c 0 -i 78 -a 0 -x {2.1 3.0 19 ------- null}
- -t 0.726190476190475 -s 2 -d 3 -p cbr -e 500 -c 0 -i 78 -a 0 -x {2.1 3.0 19 ------- null}
h -t 0.726190476190475 -s 2 -d 3 -p cbr -e 500 -c 0 -i 78 -a 0 -x {2.1 3.0 -1 ------- null}
+ -t 0.726190476190475 -s 3 -d 0 -p cbr -e 500 -c 0 -i 79 -a 0 -x {3.1 0.1 19 ------- null}
- -t 0.726190476190475 -s 3 -d 0 -p cbr -e 500 -c 0 -i 79 -a 0 -x {3.1 0.1 19 ------- null}
h -t 0.726190476190475 -s 3 -d 0 -p cbr -e 500 -c 0 -i 79 -a 0 -x {3.1 0.1 -1 ------- null}
r -t 0.728285714285714 -s 0 -d 1 -p cbr -e 500 -c 0 -i 72 -a 0 -x {0.0 1.0 18 ------- null}
r -t 0.728285714285714 -s 1 -d 2 -p cbr -e 500 -c 0 -i 73 -a 0 -x {1.1 2.0 18 ------- null}
r -t 0.728285714285714 -s 2 -d 3 -p cbr -e 500 -c 0 -i 74 -a 0 -x {2.1 3.0 18 ------- null}
r -t 0.728285714285714 -s 3 -d 0 -p cbr -e 500 -c 0 -i 75 -a 0 -x {3.1 0.1 18 ------- null}
+ -t 0.738095238095237 -s 0 -d 1 -p cbr -e 500 -c 0 -i 80 -a 0 -x {0.0 1.0 20 ------- null}
- -t 0.738095238095237 -s 0 -d 1 -p cbr -e 500 -c 0 -i 80 -a 0 -x {0.0 1.0 20 ------- null}
h -t 0.738095238095237 -s 0 -d 1 -p cbr -e 500 -c 0 -i 80 -a 0 -x {0.0 1.0 -1 ------- null}
+ -t 0.738095238095237 -s 1 -d 2 -p cbr -e 500 -c 0 -i 81 -a 0 -x {1.1 2.0 20 ------- null}
- -t 0.738095238095237 -s 1 -d 2 -p cbr -e 500 -c 0 -i 81 -a 0 -x {1.1 2.0 20 ------- null}
h -t 0.738095238095237 -s 1 -d 2 -p cbr -e 500 -c 0 -i 81 -a 0 -x {1.1 2.0 -1 ------- null}
+ -t 0.738095238095237 -s 2 -d 3 -p cbr -e 500 -c 0 -i 82 -a 0 -x {2.1 3.0 20 ------- null}
- -t 0.738095238095237 -s 2 -d 3 -p cbr -e 500 -c 0 -i 82 -a 0 -x {2.1 3.0 20 ------- null}
h -t 0.738095238095237 -s 2 -d 3 -p cbr -e 500 -c 0 -i 82 -a 0 -x {2.1 3.0 -1 ------- null}