+ 0.5 0 1 cbr 500 ------- 0 0.0 1.0 0 0
- 0.5 0 1 cbr 500 ------- 0 0.0 1.0 0 0
+ 0.5 1 2 cbr 500 ------- 0 1.1 2.0 0 1
- 0.5 1 2 cbr 500 ------- 0 1.1 2.0 0 1
+ 0.5 2 3 cbr 500 ------- 0 2.1 3.0 0 2
- 0.5 2 3 cbr 500 ------- 0 2.1 3.0 0 2
+ 0.5 3 0 cbr 500 ------- 0 3.1 0.1 0 3
- 0.5 3 0 cbr 500 ------- 0 3.1 0.1 0 3
+ 0.511905 0 1 cbr 500 ------- 0 0.0 1.0 1 4
- 0.511905 0 1 cbr 500 ------- 0 0.0 1.0 1 4
+ 0.511905 1 2 cbr 500 ------- 0 1.1 2.0 1 5
- 0.511905 1 2 cbr 500 ------- 0 1.1 2.0 1 5
+ 0.511905 2 3 cbr 500 ------- 0 2.1 3.0 1 6
- 0.511905 2 3 cbr 500 ------- 0 2.1 3.0 1 6
+ 0.511905 3 0 cbr 500 ------- 0 3.1 0.1 1 7
- 0.511905 3 0 cbr 500 ------- 0 3.1 0.1 1 7
r 0.514 0 1 cbr 500 ------- 0 0.0 1.0 0 0
r 0.514 1 2 cbr 500 ------- 0 1.1 2.0 0 1
r 0.514 2 3 cbr 500 ------- 0 2.1 3.0 0 2
r 0.514 3 0 cbr 500 ------- 0 3.1 0.1 0 3
+ 0.52381 0 1 cbr 500 ------- 0 0.0 1.0 2 8
- 0.52381 0 1 cbr 500 ------- 0 0.0 1.0 2 8
+ 0.52381 1 2 cbr 500 ------- 0 1.1 2.0 2 9
- 0.52381 1 2 cbr 500 ------- 0 1.1 2.0 2 9
+ 0.52381 2 3 cbr 500 ------- 0 2.1 3.0 2 10
- 0.52381 2 3 cbr 500 ------- 0 2.1 3.0 2 10
+ 0.52381 3 0 cbr 500 ------- 0 3.1 0.1 2 11
- 0.52381 3 0 cbr 500 ------- 0 3.1 0.1 2 11
r 0.525905 0 1 cbr 500 ------- 0 0.0 1.0 1 4
r 0.525905 1 2 cbr 500 ------- 0 1.1 2.0 1 5
r 0.525905 2 3 cbr 500 ------- 0 2.1 3.0 1 6
r 0.525905 3 0 cbr 500 ------- 0 3.1 0.1 1 7
+ 0.535714 0 1 cbr 500 ------- 0 0.0 1.0 3 12
- 0.535714 0 1 cbr 500 ------- 0 0.0 1.0 3 12
+ 0.535714 1 2 cbr 500 ------- 0 1.1 2.0 3 13
- 0.535714 1 2 cbr 500 ------- 0 1.1 2.0 3 13
+ 0.535714 2 3 cbr 500 ------- 0 2.1 3.0 3 14
- 0.535714 2 3 cbr 500 ------- 0 2.1 3.0 3 14
+ 0.535714 3 0 cbr 500 ------- 0 3.1 0.1 3 15
- 0.535714 3 0 cbr 500 ------- 0 3.1 0.1 3 15
r 0.53781 0 1 cbr 500 ------- 0 0.0 1.0 2 8
r 0.53781 1 2 cbr 500 ------- 0 1.1 2.0 2 9
r 0.53781 2 3 cbr 500 ------- 0 2.1 3.0 2 10
r 0.53781 3 0 cbr 500 ------- 0 3.1 0.1 2 11
+ 0.547619 0 1 cbr 500 ------- 0 0.0 1.0 4 16
- 0.547619 0 1 cbr 500 ------- 0 0.0 1.0 4 16
+ 0.547619 1 2 cbr 500 ------- 0 1.1 2.0 4 17
- 0.547619 1 2 cbr 500 ------- 0 1.1 2.0 4 17
+ 0.547619 2 3 cbr 500 ------- 0 2.1 3.0 4 18
- 0.547619 2 3 cbr 500 ------- 0 2.1 3.0 4 18
+ 0.547619 3 0 cbr 500 ------- 0 3.1 0.1 4 19
- 0.547619 3 0 cbr 500 ------- 0 3.1 0.1 4 19
r 0.549714 0 1 cbr 500 ------- 0 0.0 1.0 3 12
r 0.549714 1 2 cbr 500 ------- 0 1.1 2.0 3 13
r 0.549714 2 3 cbr 500 ------- 0 2.1 3.0 3 14
r 0.549714 3 0 cbr 500 ------- 0 3.1 0.1 3 15
+ 0.559524 0 1 cbr 500 ------- 0 0.0 1.0 5 20
- 0.559524 0 1 cbr 500 ------- 0 0.0 1.0 5 20
+ 0.559524 1 2 cbr 500 ------- 0 1.1 2.0 5 21
- 0.559524 1 2 cbr 500 ------- 0 1.1 2.0 5 21
+ 0.559524 2 3 cbr 500 ------- 0 2.1 3.0 5 22
- 0.559524 2 3 cbr 500 ------- 0 2.1 3.0 5 22
+ 0.559524 3 0 cbr 500 ------- 0 3.1 0.1 5 23
- 0.559524 3 0 cbr 500 ------- 0 3.1 0.1 5 23
r 0.561619 0 1 cbr 500 ------- 0 0.0 1.0 4 16
r 0.561619 1 2 cbr 500 ------- 0 1.1 2.0 4 17
r 0.561619 2 3 cbr 500 ------- 0 2.1 3.0 4 18
r 0.561619 3 0 cbr 500 ------- 0 3.1 0.1 4 19
+ 0.571429 0 1 cbr 500 ------- 0 0.0 1.0 6 24
- 0.571429 0 1 cbr 500 ------- 0 0.0 1.0 6 24
+ 0.571429 1 2 cbr 500 ------- 0 1.1 2.0 6 25
- 0.571429 1 2 cbr 500 ------- 0 1.1 2.0 6 25
+ 0.571429 2 3 cbr 500 ------- 0 2.1 3.0 6 26
- 0.571429 2 3 cbr 500 ------- 0 2.1 3.0 6 26
+ 0.571429 3 0 cbr 500 ------- 0 3.1 0.1 6 27
- 0.571429 3 0 cbr 500 ------- 0 3.1 0.1 6 27
r 0.573524 0 1 cbr 500 ------- 0 0.0 1.0 5 20
r 0.573524 1 2 cbr 500 ------- 0 1.1 2.0 5 21
r 0.573524 2 3 cbr 500 ------- 0 2.1 3.0 5 22
r 0.573524 3 0 cbr 500 ------- 0 3.1 0.1 5 23
+ 0.583333 0 1 cbr 500 ------- 0 0.0 1.0 7 28
- 0.583333 0 1 cbr 500 ------- 0 0.0 1.0 7 28
+ 0.583333 1 2 cbr 500 ------- 0 1.1 2.0 7 29
- 0.583333 1 2 cbr 500 ------- 0 1.1 2.0 7 29
+ 0.583333 2 3 cbr 500 ------- 0 2.1 3.0 7 30
- 0.583333 2 3 cbr 500 ------- 0 2.1 3.0 7 30
+ 0.583333 3 0 cbr 500 ------- 0 3.1 0.1 7 31
- 0.583333 3 0 cbr 500 ------- 0 3.1 0.1 7 31
r 0.585429 0 1 cbr 500 ------- 0 0.0 1.0 6 24
r 0.585429 1 2 cbr 500 ------- 0 1.1 2.0 6 25
r 0.585429 2 3 cbr 500 ------- 0 2.1 3.0 6 26
r 0.585429 3 0 cbr 500 ------- 0 3.1 0.1 6 27
+ 0.595238 0 1 cbr 500 ------- 0 0.0 1.0 8 32
- 0.595238 0 1 cbr 500 ------- 0 0.0 1.0 8 32
+ 0.595238 1 2 cbr 500 ------- 0 1.1 2.0 8 33
- 0.595238 1 2 cbr 500 ------- 0 1.1 2.0 8 33
+ 0.595238 2 3 cbr 500 ------- 0 2.1 3.0 8 34
- 0.595238 2 3 cbr 500 ------- 0 2.1 3.0 8 34
+ 0.595238 3 0 cbr 500 ------- 0 3.1 0.1 8 35
- 0.595238 3 0 cbr 500 ------- 0 3.1 0.1 8 35
r 0.597333 0 1 cbr 500 ------- 0 0.0 1.0 7 28
r 0.597333 1 2 cbr 500 ------- 0 1.1 2.0 7 29
r 0.597333 2 3 cbr 500 ------- 0 2.1 3.0 7 30
r 0.597333 3 0 cbr 500 ------- 0 3.1 0.1 7 31
+ 0.607143 0 1 cbr 500 ------- 0 0.0 1.0 9 36
- 0.607143 0 1 cbr 500 ------- 0 0.0 1.0 9 36
+ 0.607143 1 2 cbr 500 ------- 0 1.1 2.0 9 37
- 0.607143 1 2 cbr 500 ------- 0 1.1 2.0 9 37
+ 0.607143 2 3 cbr 500 ------- 0 2.1 3.0 9 38
- 0.607143 2 3 cbr 500 ------- 0 2.1 3.0 9 38
+ 0.607143 3 0 cbr 500 ------- 0 3.1 0.1 9 39
- 0.607143 3 0 cbr 500 ------- 0 3.1 0.1 9 39
r 0.609238 0 1 cbr 500 ------- 0 0.0 1.0 8 32
r 0.609238 1 2 cbr 500 ------- 0 1.1 2.0 8 33
r 0.609238 2 3 cbr 500 ------- 0 2.1 3.0 8 34
r 0.609238 3 0 cbr 500 ------- 0 3.1 0.1 8 35
+ 0.619048 0 1 cbr 500 ------- 0 0.0 1.0 10 40
- 0.619048 0 1 cbr 500 ------- 0 0.0 1.0 10 40
+ 0.619048 1 2 cbr 500 ------- 0 1.1 2.0 10 41
- 0.619048 1 2 cbr 500 ------- 0 1.1 2.0 10 41
+ 0.619048 2 3 cbr 500 ------- 0 2.1 3.0 10 42
- 0.619048 2 3 cbr 500 ------- 0 2.1 3.0 10 42
+ 0.619048 3 0 cbr 500 ------- 0 3.1 0.1 10 43
- 0.619048 3 0 cbr 500 ------- 0 3.1 0.1 10 43
r 0.621143 0 1 cbr 500 ------- 0 0.0 1.0 9 36
r 0.621143 1 2 cbr 500 ------- 0 1.1 2.0 9 37
r 0.621143 2 3 cbr 500 ------- 0 2.1 3.0 9 38
r 0.621143 3 0 cbr 500 ------- 0 3.1 0.1 9 39
+ 0.630952 0 1 cbr 500 ------- 0 0.0 1.0 11 44
- 0.630952 0 1 cbr 500 ------- 0 0.0 1.0 11 44
+ 0.630952 1 2 cbr 500 ------- 0 1.1 2.0 11 45
- 0.630952 1 2 cbr 500 ------- 0 1.1 2.0 11 45
+ 0.630952 2 3 cbr 500 ------- 0 2.1 3.0 11 46
- 0.630952 2 3 cbr 500 ------- 0 2.1 3.0 11 46
+ 0.630952 3 0 cbr 500 ------- 0 3.1 0.1 11 47
- 0.630952 3 0 cbr 500 ------- 0 3.1 0.1 11 47
r 0.633048 0 1 cbr 500 ------- 0 0.0 1.0 10 40
r 0.633048 1 2 cbr 500 ------- 0 1.1 2.0 10 41
r 0.633048 2 3 cbr 500 ------- 0 2.1 3.0 10 42
r 0.633048 3 0 cbr 500 ------- 0 3.1 0.1 10 43
+ 0.642857 0 1 cbr 500 ------- 0 0.0 1.0 12 48
- 0.642857 0 1 cbr 500 ------- 0 0.0 1.0 12 48
+ 0.642857 1 2 cbr 500 ------- 0 1.1 2.0 12 49
- 0.642857 1 2 cbr 500 ------- 0 1.1 2.0 12 49
+ 0.642857 2 3 cbr 500 ------- 0 2.1 3.0 12 50
- 0.642857 2 3 cbr 500 ------- 0 2.1 3.0 12 50
+ 0.642857 3 0 cbr 500 ------- 0 3.1 0.1 12 51
- 0.642857 3 0 cbr 500 ------- 0 3.1 0.1 12 51
r 0.644952 0 1 cbr 500 ------- 0 0.0 1.0 11 44
r 0.644952 1 2 cbr 500 ------- 0 1.1 2.0 11 45
r 0.644952 2 3 cbr 500 ------- 0 2.1 3.0 11 46
r 0.644952 3 0 cbr 500 ------- 0 3.1 0.1 11 47
+ 0.654762 0 1 cbr 500 ------- 0 0.0 1.0 13 52
- 0.654762 0 1 cbr 500 ------- 0 0.0 1.0 13 52
+ 0.654762 1 2 cbr 500 ------- 0 1.1 2.0 13 53
- 0.654762 1 2 cbr 500 ------- 0 1.1 2.0 13 53
+ 0.654762 2 3 cbr 500 ------- 0 2.1 3.0 13 54
- 0.654762 2 3 cbr 500 ------- 0 2.1 3.0 13 54
+ 0.654762 3 0 cbr 500 ------- 0 3.1 0.1 13 55
- 0.654762 3 0 cbr 500 ------- 0 3.1 0.1 13 55
r 0.656857 0 1 cbr 500 ------- 0 0.0 1.0 12 48
r 0.656857 1 2 cbr 500 ------- 0 1.1 2.0 12 49
r 0.656857 2 3 cbr 500 ------- 0 2.1 3.0 12 50
r 0.656857 3 0 cbr 500 ------- 0 3.1 0.1 12 51
+ 0.666667 0 1 cbr 500 ------- 0 0.0 1.0 14 56
- 0.666667 0 1 cbr 500 ------- 0 0.0 1.0 14 56
+ 0.666667 1 2 cbr 500 ------- 0 1.1 2.0 14 57
- 0.666667 1 2 cbr 500 ------- 0 1.1 2.0 14 57
+ 0.666667 2 3 cbr 500 ------- 0 2.1 3.0 14 58
- 0.666667 2 3 cbr 500 ------- 0 2.1 3.0 14 58
+ 0.666667 3 0 cbr 500 ------- 0 3.1 0.1 14 59
- 0.666667 3 0 cbr 500 ------- 0 3.1 0.1 14 59
r 0.668762 0 1 cbr 500 ------- 0 0.0 1.0 13 52
r 0.668762 1 2 cbr 500 ------- 0 1.1 2.0 13 53
r 0.668762 2 3 cbr 500 ------- 0 2.1 3.0 13 54
r 0.668762 3 0 cbr 500 ------- 0 3.1 0.1 13 55
+ 0.678571 0 1 cbr 500 ------- 0 0.0 1.0 15 60
- 0.678571 0 1 cbr 500 ------- 0 0.0 1.0 15 60
+ 0.678571 1 2 cbr 500 ------- 0 1.1 2.0 15 61
- 0.678571 1 2 cbr 500 ------- 0 1.1 2.0 15 61
+ 0.678571 2 3 cbr 500 ------- 0 2.1 3.0 15 62
- 0.678571 2 3 cbr 500 ------- 0 2.1 3.0 15 62
+ 0.678571 3 0 cbr 500 ------- 0 3.1 0.1 15 63
- 0.678571 3 0 cbr 500 ------- 0 3.1 0.1 15 63
r 0.680667 0 1 cbr 500 ------- 0 0.0 1.0 14 56
r 0.680667 1 2 cbr 500 ------- 0 1.1 2.0 14 57
r 0.680667 2 3 cbr 500 ------- 0 2.1 3.0 14 58
r 0.680667 3 0 cbr 500 ------- 0 3.1 0.1 14 59
+ 0.690476 0 1 cbr 500 ------- 0 0.0 1.0 16 64
- 0.690476 0 1 cbr 500 ------- 0 0.0 1.0 16 64
+ 0.690476 1 2 cbr 500 ------- 0 1.1 2.0 16 65
- 0.690476 1 2 cbr 500 ------- 0 1.1 2.0 16 65
+ 0.690476 2 3 cbr 500 ------- 0 2.1 3.0 16 66
- 0.690476 2 3 cbr 500 ------- 0 2.1 3.0 16 66
+ 0.690476 3 0 cbr 500 ------- 0 3.1 0.1 16 67
- 0.690476 3 0 cbr 500 ------- 0 3.1 0.1 16 67
r 0.692571 0 1 cbr 500 ------- 0 0.0 1.0 15 60
r 0.692571 1 2 cbr 500 ------- 0 1.1 2.0 15 61
r 0.692571 2 3 cbr 500 ------- 0 2.1 3.0 15 62
r 0.692571 3 0 cbr 500 ------- 0 3.1 0.1 15 63
+ 0.702381 0 1 cbr 500 ------- 0 0.0 1.0 17 68
- 0.702381 0 1 cbr 500 ------- 0 0.0 1.0 17 68
+ 0.702381 1 2 cbr 500 ------- 0 1.1 2.0 17 69
- 0.702381 1 2 cbr 500 ------- 0 1.1 2.0 17 69
+ 0.702381 2 3 cbr 500 ------- 0 2.1 3.0 17 70
- 0.702381 2 3 cbr 500 ------- 0 2.1 3.0 17 70
+ 0.702381 3 0 cbr 500 ------- 0 3.1 0.1 17 71
- 0.702381 3 0 cbr 500 ------- 0 3.1 0.1 17 71
r 0.704476 0 1 cbr 500 ------- 0 0.0 1.0 16 64
r 0.704476 1 2 cbr 500 ------- 0 1.1 2.0 16 65
r 0.704476 2 3 cbr 500 ------- 0 2.1 3.0 16 66
r 0.704476 3 0 cbr 500 ------- 0 3.1 0.1 16 67
+ 0.714286 0 1 cbr 500 ------- 0 0.0 1.0 18 72
- 0.714286 0 1 cbr 500 ------- 0 0.0 1.0 18 72
+ 0.714286 1 2 cbr 500 ------- 0 1.1 2.0 18 73
- 0.714286 1 2 cbr 500 ------- 0 1.1 2.0 18 73
+ 0.714286 2 3 cbr 500 ------- 0 2.1 3.0 18 74
- 0.714286 2 3 cbr 500 ------- 0 2.1 3.0 18 74
+ 0.714286 3 0 cbr 500 ------- 0 3.1 0.1 18 75
- 0.714286 3 0 cbr 500 ------- 0 3.1 0.1 18 75
r 0.716381 0 1 cbr 500 ------- 0 0.0 1.0 17 68
r 0.716381 1 2 cbr 500 ------- 0 1.1 2.0 17 69
r 0.716381 2 3 cbr 500 ------- 0 2.1 3.0 17 70
r 0.716381 3 0 cbr 500 ------- 0 3.1 0.1 17 71
+ 0.72619 0 1 cbr 500 ------- 0 0.0 1.0 19 76
- 0.72619 0 1 cbr 500 ------- 0 0.0 1.0 19 76
+ 0.72619 1 2 cbr 500 ------- 0 1.1 2.0 19 77
- 0.72619 1 2 cbr 500 ------- 0 1.1 2.0 19 77
+ 0.72619 2 3 cbr 500 ------- 0 2.1 3.0 19 78
- 0.72619 2 3 cbr 500 ------- 0 2.1 3.0 19 78
+ 0.72619 3 0 cbr 500 ------- 0 3.1 0.1 19 79
- 0.72619 3 0 cbr 500 ------- 0 3.1 0.1 19 79
r 0.728286 0 1 cbr 500 ------- 0 0.0 1.0 18 72
r 0.728286 1 2 cbr 500 ------- 0 1.1 2.0 18 73
r 0.728286 2 3 cbr 500 ------- 0 2.1 3.0 18 74
r 0.728286 3 0 cbr 500 ------- 0 3.1 0.1 18 75
+ 0.738095 0 1 cbr 500 ------- 0 0.0 1.0 20 80
- 0.738095 0 1 cbr 500 ------- 0 0.0 1.0 20 80
+ 0.738095 1 2 cbr 500 ------- 0 1.1 2.0 20 81
- 0.738095 1 2 cbr 500 ------- 0 1.1 2.0 20 81
+ 0.738095 2 3 cbr 500 ------- 0 2.1 3.0 20 82
- 0.738095 2 3 cbr 500 ------- 0 2.1 3.0 20 82
+ 0.738095 3 0 cbr 500 ------- 0 3.1 0.1 20 83
- 0.738095 3 0 cbr 500 ------- 0 3.1 0.1 20 83
r 0.74019 0 1 cbr 500 ------- 0 0.0 1.0 19 76
r 0.74019 1 2 cbr 500 ------- 0 1.1 2.0 19 77
r 0.74019 2 3 cbr 500 ------- 0 2.1 3.0 19 78
r 0.74019 3 0 cbr 500 ------- 0 3.1 0.1 19 79
+ 0.75 0 1 cbr 500 ------- 0 0.0 1.0 21 84
- 0.75 0 1 cbr 500 ------- 0 0.0 1.0 21 84
+ 0.75 1 2 cbr 500 ------- 0 1.1 2.0 21 85
- 0.75 1 2 cbr 500 ------- 0 1.1 2.0 21 85
+ 0.75 2 3 cbr 500 ------- 0 2.1 3.0 21 86
- 0.75 2 3 cbr 500 ------- 0 2.1 3.0 21 86
+ 0.75 3 0 cbr 500 ------- 0 3.1 0.1 21 87
- 0.75 3 0 cbr 500 ------- 0 3.1 0.1 21 87
r 0.752095 0 1 cbr 500 ------- 0 0.0 1.0 20 80
r 0.752095 1 2 cbr 500 ------- 0 1.1 2.0 20 81
r 0.752095 2 3 cbr 500 ------- 0 2.1 3.0 20 82
r 0.752095 3 0 cbr 500 ------- 0 3.1 0.1 20 83
+ 0.761905 0 1 cbr 500 ------- 0 0.0 1.0 22 88
- 0.761905 0 1 cbr 500 ------- 0 0.0 1.0 22 88
+ 0.761905 1 2 cbr 500 ------- 0 1.1 2.0 22 89
- 0.761905 1 2 cbr 500 ------- 0 1.1 2.0 22 89
+ 0.761905 2 3 cbr 500 ------- 0 2.1 3.0 22 90
- 0.761905 2 3 cbr 500 ------- 0 2.1 3.0 22 90
+ 0.761905 3 0 cbr 500 ------- 0 3.1 0.1 22 91
- 0.761905 3 0 cbr 500 ------- 0 3.1 0.1 22 91
r 0.764 0 1 cbr 500 ------- 0 0.0 1.0 21 84
r 0.764 1 2 cbr 500 ------- 0 1.1 2.0 21 85
r 0.764 2 3 cbr 500 ------- 0 2.1 3.0 21 86
r 0.764 3 0 cbr 500 ------- 0 3.1 0.1 21 87
+ 0.77381 0 1 cbr 500 ------- 0 0.0 1.0 23 92
- 0.77381 0 1 cbr 500 ------- 0 0.0 1.0 23 92
+ 0.77381 1 2 cbr 500 ------- 0 1.1 2.0 23 93
- 0.77381 1 2 cbr 500 ------- 0 1.1 2.0 23 93
+ 0.77381 2 3 cbr 500 ------- 0 2.1 3.0 23 94
- 0.77381 2 3 cbr 500 ------- 0 2.1 3.0 23 94
+ 0.77381 3 0 cbr 500 ------- 0 3.1 0.1 23 95
- 0.77381 3 0 cbr 500 ------- 0 3.1 0.1 23 95
r 0.775905 0 1 cbr 500 ------- 0 0.0 1.0 22 88
r 0.775905 1 2 cbr 500 ------- 0 1.1 2.0 22 89
r 0.775905 2 3 cbr 500 ------- 0 2.1 3.0 22 90
r 0.775905 3 0 cbr 500 ------- 0 3.1 0.1 22 91
+ 0.785714 0 1 cbr 500 ------- 0 0.0 1.0 24 96
- 0.785714 0 1 cbr 500 ------- 0 0.0 1.0 24 96
+ 0.785714 1 2 cbr 500 ------- 0 1.1 2.0 24 97
- 0.785714 1 2 cbr 500 ------- 0 1.1 2.0 24 97
+ 0.785714 2 3 cbr 500 ------- 0 2.1 3.0 24 98
- 0.785714 2 3 cbr 500 ------- 0 2.1 3.0 24 98
+ 0.785714 3 0 cbr 500 ------- 0 3.1 0.1 24 99
- 0.785714 3 0 cbr 500 ------- 0 3.1 0.1 24 99
r 0.78781 0 1 cbr 500 ------- 0 0.0 1.0 23 92
r 0.78781 1 2 cbr 500 ------- 0 1.1 2.0 23 93
r 0.78781 2 3 cbr 500 ------- 0 2.1 3.0 23 94
r 0.78781 3 0 cbr 500 ------- 0 3.1 0.1 23 95
+ 0.797619 0 1 cbr 500 ------- 0 0.0 1.0 25 100
- 0.797619 0 1 cbr 500 ------- 0 0.0 1.0 25 100
+ 0.797619 1 2 cbr 500 ------- 0 1.1 2.0 25 101
- 0.797619 1 2 cbr 500 ------- 0 1.1 2.0 25 101
+ 0.797619 2 3 cbr 500 ------- 0 2.1 3.0 25 102
- 0.797619 2 3 cbr 500 ------- 0 2.1 3.0 25 102
+ 0.797619 3 0 cbr 500 ------- 0 3.1 0.1 25 103
- 0.797619 3 0 cbr 500 ------- 0 3.1 0.1 25 103
r 0.799714 0 1 cbr 500 ------- 0 0.0 1.0 24 96
r 0.799714 1 2 cbr 500 ------- 0 1.1 2.0 24 97
r 0.799714 2 3 cbr 500 ------- 0 2.1 3.0 24 98
r 0.799714 3 0 cbr 500 ------- 0 3.1 0.1 24 99
+ 0.809524 0 1 cbr 500 ------- 0 0.0 1.0 26 104
- 0.809524 0 1 cbr 500 ------- 0 0.0 1.0 26 104
+ 0.809524 1 2 cbr 500 ------- 0 1.1 2.0 26 105
- 0.809524 1 2 cbr 500 ------- 0 1.1 2.0 26 105
+ 0.809524 2 3 cbr 500 ------- 0 2.1 3.0 26 106
- 0.809524 2 3 cbr 500 ------- 0 2.1 3.0 26 106
+ 0.809524 3 0 cbr 500 ------- 0 3.1 0.1 26 107
- 0.809524 3 0 cbr 500 ------- 0 3.1 0.1 26 107
r 0.811619 0 1 cbr 500 ------- 0 0.0 1.0 25 100
r 0.811619 1 2 cbr 500 ------- 0 1.1 2.0 25 101
r 0.811619 2 3 cbr 500 ------- 0 2.1 3.0 25 102
r 0.811619 3 0 cbr 500 ------- 0 3.1 0.1 25 103
+ 0.821429 0 1 cbr 500 ------- 0 0.0 1.0 27 108
- 0.821429 0 1 cbr 500 ------- 0 0.0 1.0 27 108
+ 0.821429 1 2 cbr 500 ------- 0 1.1 2.0 27 109
- 0.821429 1 2 cbr 500 ------- 0 1.1 2.0 27 109
+ 0.821429 2 3 cbr 500 ------- 0 2.1 3.0 27 110
- 0.821429 2 3 cbr 500 ------- 0 2.1 3.0 27 110
+ 0.821429 3 0 cbr 500 ------- 0 3.1 0.1 27 111
- 0.821429 3 0 cbr 500 ------- 0 3.1 0.1 27 111
r 0.823524 0 1 cbr 500 ------- 0 0.0 1.0 26 104
r 0.823524 1 2 cbr 500 ------- 0 1.1 2.0 26 105
r 0.823524 2 3 cbr 500 ------- 0 2.1 3.0 26 106
r 0.823524 3 0 cbr 500 ------- 0 3.1 0.1 26 107
+ 0.833333 0 1 cbr 500 ------- 0 0.0 1.0 28 112
- 0.833333 0 1 cbr 500 ------- 0 0.0 1.0 28 112
+ 0.833333 1 2 cbr 500 ------- 0 1.1 2.0 28 113
- 0.833333 1 2 cbr 500 ------- 0 1.1 2.0 28 113
+ 0.833333 2 3 cbr 500 ------- 0 2.1 3.0 28 114
- 0.833333 2 3 cbr 500 ------- 0 2.1 3.0 28 114
+ 0.833333 3 0 cbr 500 ------- 0 3.1 0.1 28 115
- 0.833333 3 0 cbr 500 ------- 0 3.1 0.1 28 115
r 0.835429 0 1 cbr 500 ------- 0 0.0 1.0 27 108
r 0.835429 1 2 cbr 500 ------- 0 1.1 2.0 27 109
r 0.835429 2 3 cbr 500 ------- 0 2.1 3.0 27 110
r 0.835429 3 0 cbr 500 ------- 0 3.1 0.1 27 111
+ 0.845238 0 1 cbr 500 ------- 0 0.0 1.0 29 116
- 0.845238 0 1 cbr 500 ------- 0 0.0 1.0 29 116
+ 0.845238 1 2 cbr 500 ------- 0 1.1 2.0 29 117
- 0.845238 1 2 cbr 500 ------- 0 1.1 2.0 29 117
+ 0.845238 2 3 cbr 500 ------- 0 2.1 3.0 29 118
- 0.845238 2 3 cbr 500 ------- 0 2.1 3.0 29 118
+ 0.845238 3 0 cbr 500 ------- 0 3.1 0.1 29 119
- 0.845238 3 0 cbr 500 ------- 0 3.1 0.1 29 119
r 0.847333 0 1 cbr 500 ------- 0 0.0 1.0 28 112
r 0.847333 1 2 cbr 500 ------- 0 1.1 2.0 28 113
r 0.847333 2 3 cbr 500 ------- 0 2.1 3.0 28 114
r 0.847333 3 0 cbr 500 ------- 0 3.1 0.1 28 115
+ 0.857143 0 1 cbr 500 ------- 0 0.0 1.0 30 120
- 0.857143 0 1 cbr 500 ------- 0 0.0 1.0 30 120
+ 0.857143 1 2 cbr 500 ------- 0 1.1 2.0 30 121
- 0.857143 1 2 cbr 500 ------- 0 1.1 2.0 30 121
+ 0.857143 2 3 cbr 500 ------- 0 2.1 3.0 30 122
- 0.857143 2 3 cbr 500 ------- 0 2.1 3.0 30 122
+ 0.857143 3 0 cbr 500 ------- 0 3.1 0.1 30 123
- 0.857143 3 0 cbr 500 ------- 0 3.1 0.1 30 123
r 0.859238 0 1 cbr 500 ------- 0 0.0 1.0 29 116
r 0.859238 1 2 cbr 500 ------- 0 1.1 2.0 29 117
r 0.859238 2 3 cbr 500 ------- 0 2.1 3.0 29 118
r 0.859238 3 0 cbr 500 ------- 0 3.1 0.1 29 119
+ 0.869048 0 1 cbr 500 ------- 0 0.0 1.0 31 124
- 0.869048 0 1 cbr 500 ------- 0 0.0 1.0 31 124
+ 0.869048 1 2 cbr 500 ------- 0 1.1 2.0 31 125
- 0.869048 1 2 cbr 500 ------- 0 1.1 2.0 31 125
+ 0.869048 2 3 cbr 500 ------- 0 2.1 3.0 31 126
- 0.869048 2 3 cbr 500 ------- 0 2.1 3.0 31 126
+ 0.869048 3 0 cbr 500 ------- 0 3.1 0.1 31 127
- 0.869048 3 0 cbr 500 ------- 0 3.1 0.1 31 127
r 0.871143 0 1 cbr 500 ------- 0 0.0 1.0 30 120
r 0.871143 1 2 cbr 500 ------- 0 1.1 2.0 30 121
r 0.871143 2 3 cbr 500 ------- 0 2.1 3.0 30 122
r 0.871143 3 0 cbr 500 ------- 0 3.1 0.1 30 123
+ 0.880952 0 1 cbr 500 ------- 0 0.0 1.0 32 128
- 0.880952 0 1 cbr 500 ------- 0 0.0 1.0 32 128
+ 0.880952 1 2 cbr 500 ------- 0 1.1 2.0 32 129
- 0.880952 1 2 cbr 500 ------- 0 1.1 2.0 32 129
+ 0.880952 2 3 cbr 500 ------- 0 2.1 3.0 32 130
- 0.880952 2 3 cbr 500 ------- 0 2.1 3.0 32 130
+ 0.880952 3 0 cbr 500 ------- 0 3.1 0.1 32 131
- 0.880952 3 0 cbr 500 ------- 0 3.1 0.1 32 131
r 0.883048 0 1 cbr 500 ------- 0 0.0 1.0 31 124
r 0.883048 1 2 cbr 500 ------- 0 1.1 2.0 31 125
r 0.883048 2 3 cbr 500 ------- 0 2.1 3.0 31 126
r 0.883048 3 0 cbr 500 ------- 0 3.1 0.1 31 127
+ 0.892857 0 1 cbr 500 ------- 0 0.0 1.0 33 132
- 0.892857 0 1 cbr 500 ------- 0 0.0 1.0 33 132
+ 0.892857 1 2 cbr 500 ------- 0 1.1 2.0 33 133
- 0.892857 1 2 cbr 500 ------- 0 1.1 2.0 33 133
+ 0.892857 2 3 cbr 500 ------- 0 2.1 3.0 33 134
- 0.892857 2 3 cbr 500 ------- 0 2.1 3.0 33 134
+ 0.892857 3 0 cbr 500 ------- 0 3.1 0.1 33 135
- 0.892857 3 0 cbr 500 ------- 0 3.1 0.1 33 135
r 0.894952 0 1 cbr 500 ------- 0 0.0 1.0 32 128
r 0.894952 1 2 cbr 500 ------- 0 1.1 2.0 32 129
r 0.894952 2 3 cbr 500 ------- 0 2.1 3.0 32 130
r 0.894952 3 0 cbr 500 ------- 0 3.1 0.1 32 131
+ 0.904762 0 1 cbr 500 ------- 0 0.0 1.0 34 136
- 0.904762 0 1 cbr 500 ------- 0 0.0 1.0 34 136
+ 0.904762 1 2 cbr 500 ------- 0 1.1 2.0 34 137
- 0.904762 1 2 cbr 500 ------- 0 1.1 2.0 34 137
+ 0.904762 2 3 cbr 500 ------- 0 2.1 3.0 34 138
- 0.904762 2 3 cbr 500 ------- 0 2.1 3.0 34 138
+ 0.904762 3 0 cbr 500 ------- 0 3.1 0.1 34 139
- 0.904762 3 0 cbr 500 ------- 0 3.1 0.1 34 139
r 0.906857 0 1 cbr 500 ------- 0 0.0 1.0 33 132
r 0.906857 1 2 cbr 500 ------- 0 1.1 2.0 33 133
r 0.906857 2 3 cbr 500 ------- 0 2.1 3.0 33 134
r 0.906857 3 0 cbr 500 ------- 0 3.1 0.1 33 135
+ 0.916667 0 1 cbr 500 ------- 0 0.0 1.0 35 140
- 0.916667 0 1 cbr 500 ------- 0 0.0 1.0 35 140
+ 0.916667 1 2 cbr 500 ------- 0 1.1 2.0 35 141
- 0.916667 1 2 cbr 500 ------- 0 1.1 2.0 35 141
+ 0.916667 2 3 cbr 500 ------- 0 2.1 3.0 35 142
- 0.916667 2 3 cbr 500 ------- 0 2.1 3.0 35 142
+ 0.916667 3 0 cbr 500 ------- 0 3.1 0.1 35 143
- 0.916667 3 0 cbr 500 ------- 0 3.1 0.1 35 143
r 0.918762 0 1 cbr 500 ------- 0 0.0 1.0 34 136
r 0.918762 1 2 cbr 500 ------- 0 1.1 2.0 34 137
r 0.918762 2 3 cbr 500 ------- 0 2.1 3.0 34 138
r 0.918762 3 0 cbr 500 ------- 0 3.1 0.1 34 139
+ 0.928571 0 1 cbr 500 ------- 0 0.0 1.0 36 144
- 0.928571 0 1 cbr 500 ------- 0 0.0 1.0 36 144
+ 0.928571 1 2 cbr 500 ------- 0 1.1 2.0 36 145
- 0.928571 1 2 cbr 500 ------- 0 1.1 2.0 36 145
+ 0.928571 2 3 cbr 500 ------- 0 2.1 3.0 36 146
- 0.928571 2 3 cbr 500 ------- 0 2.1 3.0 36 146
+ 0.928571 3 0 cbr 500 ------- 0 3.1 0.1 36 147
- 0.928571 3 0 cbr 500 ------- 0 3.1 0.1 36 147
r 0.930667 0 1 cbr 500 ------- 0 0.0 1.0 35 140
r 0.930667 1 2 cbr 500 ------- 0 1.1 2.0 35 141
r 0.930667 2 3 cbr 500 ------- 0 2.1 3.0 35 142
r 0.930667 3 0 cbr 500 ------- 0 3.1 0.1 35 143
+ 0.940476 0 1 cbr 500 ------- 0 0.0 1.0 37 148
- 0.940476 0 1 cbr 500 ------- 0 0.0 1.0 37 148
+ 0.940476 1 2 cbr 500 ------- 0 1.1 2.0 37 149
- 0.940476 1 2 cbr 500 ------- 0 1.1 2.0 37 149
+ 0.940476 2 3 cbr 500 ------- 0 2.1 3.0 37 150
- 0.940476 2 3 cbr 500 ------- 0 2.1 3.0 37 150
+ 0.940476 3 0 cbr 500 ------- 0 3.1 0.1 37 151
- 0.940476 3 0 cbr 500 ------- 0 3.1 0.1 37 151
r 0.942571 0 1 cbr 500 ------- 0 0.0 1.0 36 144
r 0.942571 1 2 cbr 500 ------- 0 1.1 2.0 36 145
r 0.942571 2 3 cbr 500 ------- 0 2.1 3.0 36 146
r 0.942571 3 0 cbr 500 ------- 0 3.1 0.1 36 147
+ 0.952381 0 1 cbr 500 ------- 0 0.0 1.0 38 152
- 0.952381 0 1 cbr 500 ------- 0 0.0 1.0 38 152
+ 0.952381 1 2 cbr 500 ------- 0 1.1 2.0 38 153
- 0.952381 1 2 cbr 500 ------- 0 1.1 2.0 38 153
+ 0.952381 2 3 cbr 500 ------- 0 2.1 3.0 38 154
- 0.952381 2 3 cbr 500 ------- 0 2.1 3.0 38 154
+ 0.952381 3 0 cbr 500 ------- 0 3.1 0.1 38 155
- 0.952381 3 0 cbr 500 ------- 0 3.1 0.1 38 155
r 0.954476 0 1 cbr 500 ------- 0 0.0 1.0 37 148
r 0.954476 1 2 cbr 500 ------- 0 1.1 2.0 37 149
r 0.954476 2 3 cbr 500 ------- 0 2.1 3.0 37 150
r 0.954476 3 0 cbr 500 ------- 0 3.1 0.1 37 151
+ 0.964286 0 1 cbr 500 ------- 0 0.0 1.0 39 156
- 0.964286 0 1 cbr 500 ------- 0 0.0 1.0 39 156
+ 0.964286 1 2 cbr 500 ------- 0 1.1 2.0 39 157
- 0.964286 1 2 cbr 500 ------- 0 1.1 2.0 39 157
+ 0.964286 2 3 cbr 500 ------- 0 2.1 3.0 39 158
- 0.964286 2 3 cbr 500 ------- 0 2.1 3.0 39 158
+ 0.964286 3 0 cbr 500 ------- 0 3.1 0.1 39 159
- 0.964286 3 0 cbr 500 ------- 0 3.1 0.1 39 159
r 0.966381 0 1 cbr 500 ------- 0 0.0 1.0 38 152
r 0.966381 1 2 cbr 500 ------- 0 1.1 2.0 38 153
r 0.966381 2 3 cbr 500 ------- 0 2.1 3.0 38 154
r 0.966381 3 0 cbr 500 ------- 0 3.1 0.1 38 155
+ 0.97619 0 1 cbr 500 ------- 0 0.0 1.0 40 160
- 0.97619 0 1 cbr 500 ------- 0 0.0 1.0 40 160
+ 0.97619 1 2 cbr 500 ------- 0 1.1 2.0 40 161
- 0.97619 1 2 cbr 500 ------- 0 1.1 2.0 40 161
+ 0.97619 2 3 cbr 500 ------- 0 2.1 3.0 40 162
- 0.97619 2 3 cbr 500 ------- 0 2.1 3.0 40 162
+ 0.97619 3 0 cbr 500 ------- 0 3.1 0.1 40 163
- 0.97619 3 0 cbr 500 ------- 0 3.1 0.1 40 163
r 0.978286 0 1 cbr 500 ------- 0 0.0 1.0 39 156
r 0.978286 1 2 cbr 500 ------- 0 1.1 2.0 39 157
r 0.978286 2 3 cbr 500 ------- 0 2.1 3.0 39 158
r 0.978286 3 0 cbr 500 ------- 0 3.1 0.1 39 159
+ 0.988095 0 1 cbr 500 ------- 0 0.0 1.0 41 164
- 0.988095 0 1 cbr 500 ------- 0 0.0 1.0 41 164
+ 0.988095 1 2 cbr 500 ------- 0 1.1 2.0 41 165
- 0.988095 1 2 cbr 500 ------- 0 1.1 2.0 41 165
+ 0.988095 2 3 cbr 500 ------- 0 2.1 3.0 41 166
- 0.988095 2 3 cbr 500 ------- 0 2.1 3.0 41 166
+ 0.988095 3 0 cbr 500 ------- 0 3.1 0.1 41 167
- 0.988095 3 0 cbr 500 ------- 0 3.1 0.1 41 167
r 0.99019 0 1 cbr 500 ------- 0 0.0 1.0 40 160
r 0.99019 1 2 cbr 500 ------- 0 1.1 2.0 40 161
r 0.99019 2 3 cbr 500 ------- 0 2.1 3.0 40 162
r 0.99019 3 0 cbr 500 ------- 0 3.1 0.1 40 163
+ 1 0 1 cbr 500 ------- 0 0.0 1.0 42 168
- 1 0 1 cbr 500 ------- 0 0.0 1.0 42 168
+ 1 1 2 cbr 500 ------- 0 1.1 2.0 42 169
- 1 1 2 cbr 500 ------- 0 1.1 2.0 42 169
+ 1 2 3 cbr 500 ------- 0 2.1 3.0 42 170
- 1 2 3 cbr 500 ------- 0 2.1 3.0 42 170
+ 1 3 0 cbr 500 ------- 0 3.1 0.1 42 171
- 1 3 0 cbr 500 ------- 0 3.1 0.1 42 171
r 1.002095 0 1 cbr 500 ------- 0 0.0 1.0 41 164
r 1.002095 1 2 cbr 500 ------- 0 1.1 2.0 41 165
r 1.002095 2 3 cbr 500 ------- 0 2.1 3.0 41 166
r 1.002095 3 0 cbr 500 ------- 0 3.1 0.1 41 167
+ 1.011905 0 1 cbr 500 ------- 0 0.0 1.0 43 172
- 1.011905 0 1 cbr 500 ------- 0 0.0 1.0 43 172
+ 1.011905 1 2 cbr 500 ------- 0 1.1 2.0 43 173
- 1.011905 1 2 cbr 500 ------- 0 1.1 2.0 43 173
+ 1.011905 2 3 cbr 500 ------- 0 2.1 3.0 43 174
- 1.011905 2 3 cbr 500 ------- 0 2.1 3.0 43 174
+ 1.011905 3 0 cbr 500 ------- 0 3.1 0.1 43 175
- 1.011905 3 0 cbr 500 ------- 0 3.1 0.1 43 175
r 1.014 0 1 cbr 500 ------- 0 0.0 1.0 42 168
r 1.014 1 2 cbr 500 ------- 0 1.1 2.0 42 169
r 1.014 2 3 cbr 500 ------- 0 2.1 3.0 42 170
r 1.014 3 0 cbr 500 ------- 0 3.1 0.1 42 171
+ 1.02381 0 1 cbr 500 ------- 0 0.0 1.0 44 176
- 1.02381 0 1 cbr 500 ------- 0 0.0 1.0 44 176
+ 1.02381 1 2 cbr 500 ------- 0 1.1 2.0 44 177
- 1.02381 1 2 cbr 500 ------- 0 1.1 2.0 44 177
+ 1.02381 2 3 cbr 500 ------- 0 2.1 3.0 44 178
- 1.02381 2 3 cbr 500 ------- 0 2.1 3.0 44 178
+ 1.02381 3 0 cbr 500 ------- 0 3.1 0.1 44 179
- 1.02381 3 0 cbr 500 ------- 0 3.1 0.1 44 179
r 1.025905 0 1 cbr 500 ------- 0 0.0 1.0 43 172
r 1.025905 1 2 cbr 500 ------- 0 1.1 2.0 43 173
r 1.025905 2 3 cbr 500 ------- 0 2.1 3.0 43 174
r 1.025905 3 0 cbr 500 ------- 0 3.1 0.1 43 175
+ 1.035714 0 1 cbr 500 ------- 0 0.0 1.0 45 180
- 1.035714 0 1 cbr 500 ------- 0 0.0 1.0 45 180
+ 1.035714 1 2 cbr 500 ------- 0 1.1 2.0 45 181
- 1.035714 1 2 cbr 500 ------- 0 1.1 2.0 45 181
+ 1.035714 2 3 cbr 500 ------- 0 2.1 3.0 45 182
- 1.035714 2 3 cbr 500 ------- 0 2.1 3.0 45 182
+ 1.035714 3 0 cbr 500 ------- 0 3.1 0.1 45 183
- 1.035714 3 0 cbr 500 ------- 0 3.1 0.1 45 183
r 1.03781 0 1 cbr 500 ------- 0 0.0 1.0 44 176
r 1.03781 1 2 cbr 500 ------- 0 1.1 2.0 44 177
r 1.03781 2 3 cbr 500 ------- 0 2.1 3.0 44 178
r 1.03781 3 0 cbr 500 ------- 0 3.1 0.1 44 179
+ 1.047619 0 1 cbr 500 ------- 0 0.0 1.0 46 184
- 1.047619 0 1 cbr 500 ------- 0 0.0 1.0 46 184
+ 1.047619 1 2 cbr 500 ------- 0 1.1 2.0 46 185
- 1.047619 1 2 cbr 500 ------- 0 1.1 2.0 46 185
+ 1.047619 2 3 cbr 500 ------- 0 2.1 3.0 46 186
- 1.047619 2 3 cbr 500 ------- 0 2.1 3.0 46 186
+ 1.047619 3 0 cbr 500 ------- 0 3.1 0.1 46 187
- 1.047619 3 0 cbr 500 ------- 0 3.1 0.1 46 187
r 1.049714 0 1 cbr 500 ------- 0 0.0 1.0 45 180
r 1.049714 1 2 cbr 500 ------- 0 1.1 2.0 45 181
r 1.049714 2 3 cbr 500 ------- 0 2.1 3.0 45 182
r 1.049714 3 0 cbr 500 ------- 0 3.1 0.1 45 183
+ 1.059524 0 1 cbr 500 ------- 0 0.0 1.0 47 188
- 1.059524 0 1 cbr 500 ------- 0 0.0 1.0 47 188
+ 1.059524 1 2 cbr 500 ------- 0 1.1 2.0 47 189
- 1.059524 1 2 cbr 500 ------- 0 1.1 2.0 47 189
+ 1.059524 2 3 cbr 500 ------- 0 2.1 3.0 47 190
- 1.059524 2 3 cbr 500 ------- 0 2.1 3.0 47 190
+ 1.059524 3 0 cbr 500 ------- 0 3.1 0.1 47 191
- 1.059524 3 0 cbr 500 ------- 0 3.1 0.1 47 191
r 1.061619 0 1 cbr 500 ------- 0 0.0 1.0 46 184
r 1.061619 1 2 cbr 500 ------- 0 1.1 2.0 46 185
r 1.061619 2 3 cbr 500 ------- 0 2.1 3.0 46 186
r 1.061619 3 0 cbr 500 ------- 0 3.1 0.1 46 187
+ 1.071429 0 1 cbr 500 ------- 0 0.0 1.0 48 192
- 1.071429 0 1 cbr 500 ------- 0 0.0 1.0 48 192
+ 1.071429 1 2 cbr 500 ------- 0 1.1 2.0 48 193
- 1.071429 1 2 cbr 500 ------- 0 1.1 2.0 48 193
+ 1.071429 2 3 cbr 500 ------- 0 2.1 3.0 48 194
- 1.071429 2 3 cbr 500 ------- 0 2.1 3.0 48 194
+ 1.071429 3 0 cbr 500 ------- 0 3.1 0.1 48 195
- 1.071429 3 0 cbr 500 ------- 0 3.1 0.1 48 195
r 1.073524 0 1 cbr 500 ------- 0 0.0 1.0 47 188
r 1.073524 1 2 cbr 500 ------- 0 1.1 2.0 47 189
r 1.073524 2 3 cbr 500 ------- 0 2.1 3.0 47 190
r 1.073524 3 0 cbr 500 ------- 0 3.1 0.1 47 191
+ 1.083333 0 1 cbr 500 ------- 0 0.0 1.0 49 196
- 1.083333 0 1 cbr 500 ------- 0 0.0 1.0 49 196
+ 1.083333 1 2 cbr 500 ------- 0 1.1 2.0 49 197
- 1.083333 1 2 cbr 500 ------- 0 1.1 2.0 49 197
+ 1.083333 2 3 cbr 500 ------- 0 2.1 3.0 49 198
- 1.083333 2 3 cbr 500 ------- 0 2.1 3.0 49 198
+ 1.083333 3 0 cbr 500 ------- 0 3.1 0.1 49 199
- 1.083333 3 0 cbr 500 ------- 0 3.1 0.1 49 199
r 1.085429 0 1 cbr 500 ------- 0 0.0 1.0 48 192
r 1.085429 1 2 cbr 500 ------- 0 1.1 2.0 48 193
r 1.085429 2 3 cbr 500 ------- 0 2.1 3.0 48 194
r 1.085429 3 0 cbr 500 ------- 0 3.1 0.1 48 195
+ 1.095238 0 1 cbr 500 ------- 0 0.0 1.0 50 200
- 1.095238 0 1 cbr 500 ------- 0 0.0 1.0 50 200
+ 1.095238 1 2 cbr 500 ------- 0 1.1 2.0 50 201
- 1.095238 1 2 cbr 500 ------- 0 1.1 2.0 50 201
+ 1.095238 2 3 cbr 500 ------- 0 2.1 3.0 50 202
- 1.095238 2 3 cbr 500 ------- 0 2.1 3.0 50 202
+ 1.095238 3 0 cbr 500 ------- 0 3.1 0.1 50 203
- 1.095238 3 0 cbr 500 ------- 0 3.1 0.1 50 203
r 1.097333 0 1 cbr 500 ------- 0 0.0 1.0 49 196
r 1.097333 1 2 cbr 500 ------- 0 1.1 2.0 49 197
r 1.097333 2 3 cbr 500 ------- 0 2.1 3.0 49 198
r 1.097333 3 0 cbr 500 ------- 0 3.1 0.1 49 199
+ 1.107143 0 1 cbr 500 ------- 0 0.0 1.0 51 204
- 1.107143 0 1 cbr 500 ------- 0 0.0 1.0 51 204
+ 1.107143 1 2 cbr 500 ------- 0 1.1 2.0 51 205
- 1.107143 1 2 cbr 500 ------- 0 1.1 2.0 51 205
+ 1.107143 2 3 cbr 500 ------- 0 2.1 3.0 51 206
- 1.107143 2 3 cbr 500 ------- 0 2.1 3.0 51 206
+ 1.107143 3 0 cbr 500 ------- 0 3.1 0.1 51 207
- 1.107143 3 0 cbr 500 ------- 0 3.1 0.1 51 207
r 1.109238 0 1 cbr 500 ------- 0 0.0 1.0 50 200
r 1.109238 1 2 cbr 500 ------- 0 1.1 2.0 50 201
r 1.109238 2 3 cbr 500 ------- 0 2.1 3.0 50 202
r 1.109238 3 0 cbr 500 ------- 0 3.1 0.1 50 203
+ 1.119048 0 1 cbr 500 ------- 0 0.0 1.0 52 208
- 1.119048 0 1 cbr 500 ------- 0 0.0 1.0 52 208
+ 1.119048 1 2 cbr 500 ------- 0 1.1 2.0 52 209
- 1.119048 1 2 cbr 500 ------- 0 1.1 2.0 52 209
+ 1.119048 2 3 cbr 500 ------- 0 2.1 3.0 52 210
- 1.119048 2 3 cbr 500 ------- 0 2.1 3.0 52 210
+ 1.119048 3 0 cbr 500 ------- 0 3.1 0.1 52 211
- 1.119048 3 0 cbr 500 ------- 0 3.1 0.1 52 211
r 1.121143 0 1 cbr 500 ------- 0 0.0 1.0 51 204
r 1.121143 1 2 cbr 500 ------- 0 1.1 2.0 51 205
r 1.121143 2 3 cbr 500 ------- 0 2.1 3.0 51 206
r 1.121143 3 0 cbr 500 ------- 0 3.1 0.1 51 207
+ 1.130952 0 1 cbr 500 ------- 0 0.0 1.0 53 212
- 1.130952 0 1 cbr 500 ------- 0 0.0 1.0 53 212
+ 1.130952 1 2 cbr 500 ------- 0 1.1 2.0 53 213
- 1.130952 1 2 cbr 500 ------- 0 1.1 2.0 53 213
+ 1.130952 2 3 cbr 500 ------- 0 2.1 3.0 53 214
- 1.130952 2 3 cbr 500 ------- 0 2.1 3.0 53 214
+ 1.130952 3 0 cbr 500 ------- 0 3.1 0.1 53 215